id,band_gap,formation_energy_per_atom,density,e_above_hull,energy,energy_per_atom,pretty_formula
mp-554479,3.3373,-3.2196295779712307,4.6429895260019265,0.01807972833333249,-172.40960442,-7.1837335174999986,Ba3BPO7
mp-28950,4.343999999999999,-0.8058533508923372,2.5401332297540824,0.0,-164.95605780000002,-7.498002627272728,P4N6O
mp-755450,2.1927000000000003,-3.903895924886364,6.289286863950944,0.009338661022722405,-188.80141195,-8.581882361363636,La2Ce2O7
mp-560443,0.5509999999999999,-0.734838699107037,6.965862589111117,0.0,-156.93653968,-4.3593483244444435,AgHg2NO5
mp-769025,2.9231000000000003,-2.266187129488096,2.6517839854727066,0.02768026999999673,-136.05958416,-4.859270862857144,K2Mg2O3
mp-697670,4.9298,-3.2564050625384606,2.4567694899518955,0.0,-194.84947261,-7.494210485,KAlSi3O8
mp-7251,2.8565,-3.458157678083334,5.84060963534009,0.0,-80.46089095,-8.046089095000001,Ba2YNbO6
mp-754663,4.268000000000002,-2.4195680098214294,2.8722026006105112,0.035102032071424816,-79.55448843,-5.682463459285715,Na2Be2O3
mp-568346,2.1309,-1.8358776724600008,6.767895148616204,0.0,-50.10843303,-8.351405505,HfBrN
mp-867712,0.9476,-2.002135250793333,4.019645646551519,0.004822724999999473,-22.43646395,-3.7394106583333335,LiAgF4
mp-773140,0.3308,-0.9428340066666662,5.224349937620335,0.1097264532291673,-129.19621403,-5.3831755845833325,Co3NiO8
mp-761021,0.4354999999999993,-1.5859481602500003,5.523102577594434,0.10166295771875156,-105.06612778,-5.2533063890000005,Li3Cu(TeO3)4
mp-9480,4.5011,-3.1962209139999986,2.5036351414606117,0.0018494703571434452,-99.27114741,-7.090796243571428,KAlSiO4
mp-776856,,,,,,,
mp-977011,1.8336,-1.0175757009841668,4.0743074789192315,0.1682882407986126,-51.65562755,-4.3046356291666665,H3PbCI3NF3
mp-764101,,,,,,,
mp-768537,1.5384,-1.3548995389347287,5.661732100758769,0.010595379999999821,-54.53830643,-3.895593316428571,Cs3TlO3
mp-767471,1.2902,-0.9407245277083334,2.321882527556808,0.0907523910714283,-94.92670165,-3.3902393446428567,Li5SbS
mp-941221,4.9993,-0.3363595024030305,1.0092886804096803,0.05480765928571163,-331.22708337,-5.0185921722727285,Li(BH)5
mp-770765,1.4515999999999998,-2.2044834007845013,3.13545620915584,0.01683111950891103,-324.53346611,-6.241028194423077,Na3MnBAsO7
mp-565750,,,,,,,
mp-568759,2.7212,-1.5313501971257142,5.119419740547738,0.0,-273.58682574,-4.885479031071427,NaNd4I7N2
mp-697540,3.1785,-1.5161498832370002,2.7097543154666286,0.0,-100.55829844,-5.027914922,K3GeH2NO3
mp-772625,1.1458999999999997,-2.1491824580902783,3.2993194577409137,0.07802259789525134,-146.92897494,-6.122040622499999,Na2SnBAsO7
mp-767206,,,,,,,
mp-730691,1.9364,-2.3771179158732347,3.7679496734086935,0.016974651176464132,-454.60845222,-6.685418415,CaU2Si2H12O17
mp-28155,2.1536,-3.1772368106250006,5.397858989004591,0.024775610035714383,-713.70634032,-8.921329254,LaNb5O14
mp-551135,0.4919000000000002,-2.5989670347685183,4.0664815616255865,0.027751901851849503,-63.99598944,-7.110665493333332,BaCuB2O5
mp-600220,3.7013,-1.524828522656316,2.5362627602179515,0.03416598671052373,-468.21257723,-6.160691805657895,InH6(CO3)3
mp-561045,1.8946000000000005,-3.001801064487178,6.264285020313804,0.0,-268.63324521,-6.888031928461538,Ba8Ce3(SbO6)4
mp-504539,3.9028,-3.861911313214285,8.083441565294006,0.0379577148214274,-220.22961937,-7.86534354892857,CaLu2O4
mp-778746,,,,,,,
mp-560528,1.4420000000000002,-3.024852304472527,3.1702777976653027,0.003298924230767497,-184.53772496,-7.0976048061538455,K2Ce(PO4)2
mp-753923,2.1913,-2.2109617732204434,5.210444581392337,0.010275083571429809,-70.96468961,-5.068906400714285,Cs3HoO3
mp-25748,,,,,,,
mp-623590,2.0139,-2.134964771463068,3.3369296233858687,0.0,-289.92571463,-6.589220787045455,RbV2SeO7
mp-754596,2.4654,-2.0586323525,4.130702835628797,0.0,-41.46896868,-5.183621085,RbGaO2
mp-777077,,,,,,,
mp-18984,0.0,-2.6887843941720786,3.2687909774450308,0.058066724943189214,-155.03368512,-7.046985687272728,Na2ZrNi(P2O7)2
mp-5836,4.8917,-3.8368498774999993,6.523797615725696,0.0,-105.68202009,-8.8068350075,ThSiO4
mp-861979,1.1285999999999996,-0.7636201608750006,9.57172773292296,0.0,-63.82786249,-6.3827862490000005,Ir2S3
mp-773327,,,,,,,
mp-567975,3.8336,-1.446131571531429,1.7546515198345616,0.012081848645838278,-69.89928267,-4.368705166875,AlPNCl5
mp-763342,1.0136999999999998,-1.2292809730355547,4.306281630969768,1.0608858227777889,-90.54213337,-5.030118520555557,FeOF
mp-639506,5.6553,-3.264734064999999,1.8079675426380968,0.013263604166665388,-284.50708545,-7.902974595833332,SiO2
mp-28485,2.4606,-1.6055556249038463,5.1901069462832226,0.023341408365375568,-145.52177679,-5.596991415,Sb5IO7
mp-1019577,,,,,,,
mp-763447,0.6056000000000004,-2.0442549755555555,4.658374392136553,0.2183110203124965,-151.51641396,-6.313183915,Li5Ti2Co5O12
mp-28587,4.8099,-1.6628968330507143,2.834073212552928,0.0,-289.38298851,-5.16755336625,BaH8O5
mp-625832,2.5454,-1.083087061543636,3.4534619185878785,0.3392845018181818,-111.20745593,-5.054884360454545,Ba(H2O3)2
mp-981,6.7528,-4.251848406348889,4.1338366284389245,0.0,-17.28612674,-5.762042246666668,SrF2
mp-39140,4.0558000000000005,-2.977507179994584,2.2461307446362797,0.0,-325.29870310000007,-6.777056314583334,Na4Al3Si3HO13
mp-770066,,,,,,,
mp-6044,4.815,-3.2598635350372027,3.5668662131974918,0.0,-466.22329993,-7.28473906140625,Sr6B(PO4)5
mp-764592,,,,,,,
mp-24950,,,,,,,
mp-669358,2.3723,-0.5902343396969698,5.058476891665445,0.00177199863636357,-62.97416322,-1.9083079763636364,CdI2
mp-560527,5.3907,-3.2678660537499997,1.7517191735736708,0.010131615416666406,-189.74655803,-7.906106584583332,SiO2
mp-769253,2.0813,-3.3632823929687503,8.083237844327037,0.042276995999999116,-38.01722806,-7.603445612000001,Dy2SeO2
mp-579552,3.933099999999999,-3.2859403592187504,5.261899002384096,0.0017372155208299491,-799.37561097,-8.3268292809375,La2CO5
mp-767311,,,,,,,
mp-766374,3.3375000000000004,-2.4980703809523805,5.24963787079495,0.0572734170238105,-274.12730658,-6.526840632857143,LiSiBiO4
mp-31777,,,,,,,
mp-756238,3.9627,-1.6663866498148152,3.8951392232986417,0.02230442750000039,-88.55987844,-3.2799954977777785,Sr2CaI6
mp-14152,3.5555,-3.5482979922222233,6.347343846816625,0.0,-106.18287469,-8.848572890833333,SmNbO4
mp-18698,4.5619999999999985,-2.548983936293104,4.169487523529129,0.0,-300.37469333,-7.50936733325,CsPr(CO3)2
mp-764113,,,,,,,
mp-686722,2.3972,-1.241720566009565,1.928232760536988,0.21640208836956545,-199.64223933,-4.340048681086956,Na3TlH24(ClO2)6
mp-782681,,,,,,,
mp-13097,0.3635999999999999,-0.42018164500000016,4.312805590944771,0.0,-16.98147321,-2.830245535,NaZnAs
mp-569853,0.3032000000000004,-1.0284674348706897,4.839223302084632,0.0,-151.52458686,-4.735143339375,CsNb4Br11
mp-782647,1.3778,-2.4611327999789245,2.253330481944769,0.1590720555937537,-437.49335639,-6.83583369359375,Li2MnP3O10
mp-778712,,,,,,,
mp-761484,,,,,,,
mp-18851,2.2669,-2.158259442083333,6.433698217436234,0.09249926645833463,-172.06192094,-7.1692467058333325,NaCr(WO4)2
mp-759704,0.22239999999999996,-2.3154912556604312,3.355186752590043,0.04738416390476363,-274.97673991,-6.547065235952381,Li2Cu2P4O13
mp-997589,3.3008000000000006,-3.5767873839999997,6.492391592281627,0.05966760940624205,-313.42623799,-7.83565594975,La8Al7InO24
mp-781772,0.3905999999999996,-2.179155710012775,4.102084785117482,0.059109463922617074,-196.26854905,-7.0095910375,Li2Mn3VO8
mp-25774,,,,,,,
mp-677703,3.1709000000000005,-2.1966396004563142,5.0478450424296,0.005223260095698734,-608.64176226,-8.008444240263158,Nd4Si4N7ClO3
mp-776589,3.830200000000001,-2.5572282617310496,2.9673080841442614,0.04951145425510362,-642.60414949,-6.5571851988775505,Li9Sb3P8O29
mp-776260,1.6417000000000002,-2.3458535197019983,5.588632548175676,0.004864501750001082,-391.80222962,-9.795055740499999,Zr2N2O
mp-12620,0.9158,-3.0381562395112494,6.772434977265612,0.009991145972221284,-37.59814708,-6.266357846666666,NdSeF
mp-694873,0.4090999999999996,-2.2315340434166666,6.387450433597867,0.13643090975794436,-134.61006503,-6.730503251499998,SrLaNiRuO6
mp-9820,5.1311,-2.7927165468838786,3.5958118430241304,0.0,-36.41894361,-4.55236795125,CsAsF6
mp-559994,1.4182000000000006,-2.232194723902857,5.361755876934309,0.0,-401.01228534,-7.160933666785715,La6S4BrN3
mp-559373,3.4625000000000004,-2.0336492322321424,5.7350813570557415,0.002006603452379352,-88.86471454,-6.34747961,Ge4PbO9
mp-762240,4.2134,-2.560556482148148,2.5529163058302586,0.0,-215.84546662,-5.995707406111111,K2Li2TiO4
mp-7310,5.0299,-3.5648948752675005,5.788106437820519,0.0,-98.60549997,-6.162843748125,ZrPbF6
mp-566892,,,,,,,
mp-777072,,,,,,,
mp-570192,0.8756000000000004,-0.9714451110266461,5.030255773902054,0.0,-208.10246395,-4.72960145340909,CsZr6MnI14
mp-567966,1.1281,-2.192266850169565,2.9126921348074206,0.0,-522.89363951,-5.683626516413042,RbZr6CCl15
mp-762011,0.5993999999999997,-1.9261460559523815,4.336918433028261,0.02938809015872845,-90.49794477,-6.464138912142857,LiCrCoO4
mp-558170,3.6649,-2.504356234821429,3.6551080085612164,0.0,-181.48959933,-5.6715499790625,Rb3PO4
mp-565991,,,,,,,
mp-540133,0.6848000000000001,-2.3308342056872293,2.4911971124417405,0.07301506039393857,-146.65729383,-6.666240628636363,LiCoP2O7
mp-779269,1.3092,-2.561120285461691,2.9354765594060974,0.1514060921428495,-206.52223104,-4.917195977142859,LiMnF5
mp-19264,2.7155000000000005,-2.2260071513186817,3.6768152464273607,0.0,-178.86588365,-6.879457063461539,Co3(PO4)2
mp-697861,,,,,,,
mp-634430,0.0,-2.1072715466666665,3.7249668301313945,0.3776915858333325,-88.85400699,-7.4045005825,VO2
mp-850401,2.341,-2.7628386422361912,3.1037478468152195,0.040284372629869836,-149.60531645,-5.343047016071429,Li2FeOF3
mp-31853,,,,,,,
mp-2763,3.840500000000001,-3.7609766687500006,7.108515475200803,0.0297496835000004,-41.07816617,-8.215633234,Nd2O3
mp-677391,4.1637,-3.989885848859649,7.601387826903196,0.0,-340.59830446,-8.963113275263158,Tm4Zr3O12
mp-558326,5.587000000000001,-3.266936245648148,1.7500924023163404,0.0110614235185178,-853.75909186,-7.905176776481483,SiO2
mp-773776,,,,,,,
mp-581877,4.946999999999999,-3.260276008664392,3.2975078261399955,0.0,-554.43136663,-7.700435647638887,Cs2Zr(Si2O5)3
mp-767276,1.8272,-2.633506852154472,2.4326330439662534,0.08768016945119594,-286.05958624,-6.97706307902439,Li5Fe5Si7O24
mp-568670,5.2045,-2.490668005042207,3.3544240408397967,0.0,-40.16717976,-4.016717976000002,Cs2NaTbCl6
mp-555313,2.7086,-2.7813970817499998,7.1011370595045875,0.033727688249999936,-147.4514692,-7.37257346,ScBiO3
mp-850929,4.9151,-3.0934289591898643,2.9283619781279557,0.03559491484848465,-173.00270126,-5.242506098787879,Li4MnF6
mp-21276,0.4672000000000001,-0.8647567115625003,7.333909137269747,0.0,-8.91509284,-4.45754642,PbS
mp-647556,2.6689,0.06906770452905701,4.684311957602111,0.06906770452905864,-351.95507524,-6.640661796981132,Tl8(CdN14)3
mp-780497,2.6796,-2.473528753176264,3.2300227621258952,0.011065015714285307,-256.6503546,-7.129176516666668,Li2MnFe(BO3)2
mp-28065,2.5081000000000007,-2.4373527168799995,7.9102703426808265,0.0,-47.86447913,-7.977413188333332,ThNCl
mp-774318,0.7782999999999998,-1.7395550347549014,4.491745934828239,0.12306313371323352,-186.30823532,-5.47965398,Li10Fe3Co3(NiO8)2
mp-555030,5.5912,-2.9122795762566134,3.0125051025232232,0.01007659067130007,-531.20183642,-7.377803283611112,NaY(PO3)4
mp-762872,,,,,,,
mp-1716,0.5648999999999997,-1.0909178892500002,7.968573220357282,0.023008262499997656,-131.47441989,-6.5737209945,Rh2O3
mp-851070,,,,,,,
mp-6875,4.7346,-3.309514469074073,2.9514585697648554,0.0,-397.01364189,-7.352104479444443,BaNa2Al4(SiO4)4
mp-757365,2.3038,-3.5369952139423066,7.317436102087647,0.0,-249.40253189,-9.592405072692307,LaTa3O9
mp-675896,5.2646,-4.188936532999667,4.2949846704091845,0.16113654783333242,-181.80085484,-6.0600284946666685,Ca2NdF7
mp-675677,2.0582,-2.495639590833333,6.631623025447608,0.0010904114285734678,-84.67279366,-6.04805669,Yb(SmS2)2
mp-24066,4.98,-2.497126829949167,3.046420658468381,0.0,-40.83448336,-5.10431042,SrHClO
mp-19282,3.4088000000000003,-2.664907625583333,6.575476007058518,0.018637690799993226,-65.36861865,-6.5368618650000005,Sr2ZnWO6
mp-765215,,,,,,,
mp-30197,5.1968,-2.486772772606,2.655325869081422,0.0,-161.15782091,-4.02894552275,K3ErCl6
mp-950995,2.2742,-1.3239463614766485,2.221001652272517,0.005737921730768036,-105.93416816,-4.074391083076923,Li6PS5I
mp-567907,3.5819,-0.5377672715767856,2.69361682917931,0.0,-120.60871339,-7.538044586875,P3N5
mp-9003,1.6363,-0.938521830671875,3.7677526096978746,0.0,-75.82626032,-4.73914127,K2NbCuSe4
mp-11982,3.2057,-2.8140966685833324,5.05289414248409,0.0,-124.27337134,-6.213668567000001,Sr2CaTeO6
mp-761451,,,,,,,
mp-560866,5.2152,-2.9531351192195774,3.1465762852625248,0.0,-265.20498235,-7.366805065277778,LiLa(PO3)4
mp-673244,0.9262000000000006,-1.54124825675,8.428400901981906,0.11110345200000538,-28.21607045,-5.64321409,Bi2O3
mp-9791,1.2589,-0.5937853127678565,6.378214898309535,0.009612020535714194,-26.31893361,-3.759847658571428,Tl3AsS3
mp-19667,,,,,,,
mp-4009,0.3844000000000003,-1.5526490503124997,4.818884277808518,0.0,-40.50406741,-5.06300842625,BaPdS2
mp-555769,2.6847000000000003,-2.7806484102499995,7.106623331733978,0.03447635975000018,-147.43649577,-7.371824788500001,ScBiO3
mp-770689,1.9528,-2.689200897404409,3.3925330322304648,0.08358965211362968,-147.69011274,-6.713186942727273,Li2MnAl2O6
mp-560208,3.1394,-2.2737561245166673,3.2822293149216124,0.0,-380.26739635,-6.337789939166668,K3NbAs2O9
mp-696127,1.0491,-0.8123116290773811,3.3163516070283885,0.011214798399999282,-193.58408069,-3.8716816138,Li10Ge(PSe6)2
mp-770954,1.2711,-2.612781712738096,4.259924562645839,0.007296072678570909,-214.04804787,-7.6445731382142865,Li4Nb2V3Cr3O16
mp-14307,1.5651000000000002,-2.161672380119048,2.6282479580402014,0.0,-86.57100051,-6.183642893571429,Mg(ScS2)2
mp-7560,5.3104,-3.5779679444166668,6.84011574019449,0.0,-83.65435458,-8.365435458,LuBO3
mp-863878,,,,,,,
mp-756599,3.033,-3.256624751785714,5.516437435038595,0.0310646819642848,-203.64203981,-7.272929993214285,La2ZnO4
mp-15492,3.2269000000000005,-3.4310992888425917,8.42216594474051,0.008608375925916789,-521.83710501,-9.663650092777775,DyTa7O19
mp-763774,,,,,,,
mp-849542,0.5899000000000001,-2.3990300922684096,3.0730417887369312,0.06043579422616574,-243.28859918,-6.7580166438888885,Li2MnVP2(HO5)2
mp-757963,4.7113,-1.8284435035127535,1.9969200696358056,0.0,-265.39996402,-5.769564435217393,K2MgH8(CO5)2
mp-19104,0.8097000000000001,-2.4167244027777777,7.160806253016967,0.0,-167.2575753,-6.969065637500001,LiYb(WO4)2
mp-29157,0.5184000000000006,-0.4083970845238092,5.429211501334982,0.0,-71.23606781,-5.9363389841666665,Si3P2Pt
mp-27304,1.0976,-1.8043993516905752,2.3642265863488205,0.0,-35.14520439,-3.90502271,K2MnCl6
mp-36538,2.1830000000000003,-2.077989386071429,5.95097102589419,0.019483563571429663,-84.04497786,-6.003212704285715,La2PbS4
mp-555904,3.5496,-2.8437169276190484,4.918106179200028,0.0,-190.14438992,-6.7908710685714295,NaSmGeO4
mp-763392,,,,,,,
mp-569175,3.6106,-2.252261323608,2.45716548810621,0.0,-49.64882231,-4.964882231,ZrCl4
mp-772511,0.5427999999999997,-1.9828856104166672,5.434401625996896,0.017197376517862573,-333.50312858,-5.955413010357143,Li4Co3Sn5O16
mp-608398,1.8156,-1.2371385163961108,2.290162594747979,0.09098589853185236,-160.73647841,-4.4649021780555564,NbSNCl6
mp-6698,2.9243,-3.1776837100396818,5.283593984837147,0.0,-286.62614632,-7.961837397777778,Th2Cu(PO4)3
mp-769032,1.4086000000000003,-1.4811329212500004,2.8965741003393424,0.0,-166.27638575,-5.1961370546875,Li3NbS4
mp-35482,1.1151999999999995,-1.3011577638461531,4.674429054520703,0.9764943617307642,-81.72061568,-6.286201206153847,Ti(FeO2)4
mp-17966,3.844700000000001,-2.624365629217533,3.309251080802506,0.0,-293.10533841,-6.6614849638636375,KInP2O7
mp-770500,1.4536000000000002,-2.3814697478513334,2.859682339108149,0.007263987554892992,-380.03774658,-6.552374941034483,Na6Mn2B4SO16
mp-504944,5.1356,-2.165098229007678,2.084921463027634,0.03181266593750465,-380.06743917,-5.93855373703125,NaP(HO2)2
mp-12187,4.4102999999999986,-3.130237824216666,2.5298476754535635,0.004118373600002556,-721.19803764,-7.2119803764000014,Na2Mg2(Si2O5)3
mp-776751,1.2868,-1.9648248897023808,4.084825625345927,0.34197155178571226,-183.28617006,-6.545934645,Li4V5Co3O16
mp-6622,1.9458999999999995,-3.6590501120312497,5.6265968347358895,0.008730734531248173,-272.2837445,-8.508867015625,BaNd2Ti3O10
mp-763978,,,,,,,
mp-32507,,,,,,,
mp-763873,,,,,,,
mp-696128,2.0551,-1.2680019320523814,2.00048678843187,0.03211664699999961,-215.81847718,-4.3163695436000005,Li10Ge(PS6)2
mp-764957,2.7601,-2.4093288091666665,3.2260783122172763,0.14234081312500013,-202.93138602,-6.341605813125,Li2CoSiO4
mp-771084,,,,,,,
mp-29345,2.2483000000000004,-0.7793635103333333,4.183903604700221,0.0,-53.62343008,-2.681171504,LiGaI3
mp-542662,1.4191,-1.2791335786654547,2.828074609446229,0.0,-140.76083161,-3.199109809318182,Ga2Te2Cl7
mp-769946,,,,,,,
mp-19598,,,,,,,
mp-5373,2.721,-3.762647118674243,4.843254190665895,0.009195067727278072,-199.66206316,-9.075548325454548,Y2Ti2O7
mp-556562,3.7844,-1.9999030908398039,2.34809337938132,0.01430367999999671,-162.52900127,-4.780264743235295,LiAsH6(OF2)3
mp-24308,5.4030000000000005,-0.8898865538441189,1.2279641147233948,0.0,-351.55337894,-5.169902631470588,AlSiH9C3Cl2O
mp-696019,3.5798,-2.007802132210804,2.1880477085950405,0.049835560708705096,-179.13335956,-5.59791748625,Na3P2H4O7
mp-2632,1.256,-2.1221820327675003,8.023652499740933,0.0,-60.44812581,-3.778007863125,TlF3
mp-767808,,,,,,,
mp-771494,,,,,,,
mp-774350,1.1942,-2.8749150337795024,3.8778884726387695,0.019449832291667413,-233.01065093,-6.4725180813888885,Mn6OF11
mp-769866,,,,,,,
mp-541452,,,,,,,
mp-754329,0.9579999999999996,-1.8610947327500007,6.808462408325597,0.0,-53.88193566,-5.388193566,CdSnO3
mp-14092,1.0465999999999998,-0.3594969620833335,5.137259583266082,0.0,-28.60538919,-3.57567364875,AlAgTe2
mp-32518,,,,,,,
mp-558608,2.5371,-2.7468151560185183,6.209839446681885,0.008790659735460338,-222.33158654,-8.234503205185185,Nb2PbO6
mp-541600,2.2853000000000003,-3.393442761022728,6.701846374193886,0.021465151136368377,-96.67962439,-8.789056762727272,RbLaTa2O7
mp-756810,3.2939,-3.5916500860657146,6.630188144448131,0.015872126904744373,-181.71329058,-8.653013837142858,Sr3Ta4(O6F)2
mp-541740,2.9698,-3.120294826403061,4.6323086705117635,0.0,-241.36581708,-8.620207752857143,TaPO5
mp-752728,5.0594,-2.2423524468181824,2.997919414502777,0.0037056795454537546,-126.58516615,-5.753871188636364,Rb2S2O7
mp-755792,3.6376,-3.1747158672500007,8.887079428303617,0.0545302801666665,-144.63846473,-7.2319232365,LuGaO3
mp-32787,1.9344,-2.4319377208750006,6.652220625831769,0.034665560999999734,-253.94780756,-6.348695189,Ho2S3
mp-32684,4.4860000000000015,-0.3053996230599996,2.4359291207165765,0.022652083750000163,-21.94984979,-2.74373122375,HBr
mp-18271,2.5273,-2.9594279634704974,2.9897989893970323,0.0,-323.74356426,-7.037903570869566,Na5Ti2Si2PO13
mp-780584,,,,,,,
mp-697692,1.2462,-2.383041911359128,2.7844036051875896,1.980959044333328,-331.74947493,-6.911447394375,LiCr(PO4)2
mp-771903,0.5263,-2.2784091180952366,3.466912924575438,0.056789784375019366,-249.17910654,-6.9216418483333335,Fe5Cu(PO4)6
mp-559441,3.0704,-3.0427058851860123,3.05472036749916,0.01337140468749709,-243.14894392,-7.5984044975,LiTiPO5
mp-773964,,,,,,,
mp-705390,0.0,-2.1881171573363103,2.7764071462104094,0.2576294230208367,-636.56489605,-6.630884333854167,Li3Fe4P9O32
mp-571550,0.5464000000000002,-0.1883283789375,5.728494486763372,0.0366532180000001,-19.33476495,-3.86695299,Sb2TeSe2
mp-766570,1.8076,-4.1833808248809525,8.68983171856912,0.006117094761901143,-194.74501435,-9.273572111904759,Ce3Th4O14
mp-780184,1.9087,-1.6993319248026324,2.6525864565274584,0.05455707944078458,-241.33118711,-6.350820713421053,Na2Cr4O13
mp-25569,,,,,,,
mp-680781,0.4685,-2.2836807850109646,3.543612175036925,0.29751851184210576,-224.34710151,-5.90387109236842,Rb3Tm(SO4)3
mp-542842,,,,,,,
mp-849252,,,,,,,
mp-759870,2.9045999999999994,-2.1889213364383338,8.319619614820137,0.0429815310416668,-257.91033587,-5.373131997291666,BiOF
mp-24939,,,,,,,