id,band_gap,formation_energy_per_atom,density,e_above_hull,energy,energy_per_atom,pretty_formula
mp-554822,2.9519,-2.480798198339491,3.760384992193621,0.0,-79.58587581,-6.632156317500001,CsSb(PO4)2
mp-504554,3.0901000000000005,-3.450300114114583,7.685422730472805,0.0,-203.51814804,-8.479922835,Ba5Ta4O15
mp-17446,2.4369,-2.931328438981111,5.418349605859031,0.0,-188.71045497,-5.2419570825,PrPtF7
mp-29722,0.8572999999999995,-0.9754998638095235,4.314273057406841,0.0,-164.78453444,-3.923441296190476,Ca11InSb9
mp-765452,,,,,,,
mp-22574,1.3011,-0.01224409953124983,3.7929747858297294,0.0,-319.99250489,-4.99988288890625,HgP14Pb
mp-542001,2.0978,-4.083470465285333,4.605237733889982,0.0,-192.1958521,-6.406528403333334,CeF4
mp-559847,1.2617999999999996,-0.5984623486881754,4.79262687130714,0.0,-43.15714075,-3.5964283958333336,Ag5P(S2Cl)2
mp-7770,0.25639999999999974,-0.6690736833333333,5.301563108465471,0.0,-16.870787,-3.3741574,Sr(ZnAs)2
mp-561613,,,,,,,
mp-769584,0.8661,-2.0710680779942368,2.6037102635700813,0.12304720136364011,-151.86908429,-6.903140195,NaMnPCO7
mp-23666,3.7943,-0.9925718346235295,1.942363429202147,0.04285290440012979,-390.06788319,-5.736292399852941,AsH8CN3O4
mp-28870,0.9832000000000001,-1.9831209922619049,4.324065636330792,0.0,-249.7990995,-6.938863875,PRhO4
mp-770247,,,,,,,
mp-23714,3.1308,-0.6352881254688884,3.317781041060427,0.0,-40.29927581,-3.3582729841666663,SrH2
mp-6785,2.8102,-3.429783055904544,4.012456489456246,0.0,-271.77720829,-6.1767547338636355,K3UO2F5
mp-771363,,,,,,,
mp-644226,3.1814999999999998,-1.9738000208489992,3.27784231146553,0.05625709649999777,-135.63662269,-6.7818311345,BaH2C2O5
mp-764040,,,,,,,
mp-561118,2.0338,-1.1423049621874997,3.9974775203152224,0.001197954732143458,-56.13648317,-3.508530198125,ZnS
mp-779999,,,,,,,
mp-1683,0.43820000000000014,-1.0480913255078121,5.205999281160284,0.0,-46.45560073,-5.80695009125,ZrSe3
mp-778025,,,,,,,
mp-510519,2.0557999999999996,-2.4576283057692314,3.1553570736100296,0.0,-180.15325676,-6.9289714138461544,Rb2V3O8
mp-39025,1.6547,-3.0586464890475016,4.022455233378273,0.12442681562500013,-128.99108827,-8.061943016875,NbO2F
mp-767602,,,,,,,
mp-556179,2.7393,-1.9379090213042862,3.818447045543362,0.0,-162.71594991,-5.811283925357143,Pr3Si2S8Cl
mp-6017,3.2621,-2.5630036422959184,3.5837054401104638,0.0,-87.36229921,-6.240164229285715,Na3In(PO4)2
mp-769920,,,,,,,
mp-572805,2.9267000000000003,-1.1647070514477684,4.573416499990885,0.0,-297.55672414,-4.375834178529411,Cs2I4O11
mp-3637,4.954,-4.243954181924445,5.055686854073362,0.0,-49.72830561,-8.288050935,YOF
mp-754979,4.3751999999999995,-3.8459967067500003,4.825709010175128,0.01855849294999956,-174.15551936,-8.707775968,Y3AlO6
mp-39033,1.7525000000000004,-1.9361653922916666,6.157745931104567,0.0,-77.52514266,-5.53751019,Sr(NdSe2)2
mp-27482,1.6476000000000002,-0.5267461540270145,4.118411336295765,0.006578731794871118,-106.63063404,-4.101178232307692,Ag4P2S7
mp-853140,,,,,,,
mp-775622,,,,,,,
mp-3933,3.5372000000000003,-1.129040415396349,3.045475746666679,0.0,-78.4774735,-6.539789458333334,Mg2PN3
mp-707209,2.8625,-1.5257821402304377,2.2231141561965493,0.0031073371354368717,-1004.33769458,-5.230925492604166,CsH24Rh(SO10)2
mp-769692,,,,,,,
mp-759878,4.8656,-1.584892051371884,1.788811340305338,0.00019922771737856948,-214.2846657,-4.658362297826087,RbMgH12(ClO2)3
mp-754043,4.1867,-3.2297876118749995,7.342251090553278,0.026077787500000227,-54.48730982,-6.8109137275,NaLuO2
mp-849354,,,,,,,
mp-773681,,,,,,,
mp-782684,,,,,,,
mp-765912,,,,,,,
mp-565688,,,,,,,
mp-780125,1.2957999999999998,-2.2820175654542605,2.7319762347484953,1.3463903283947323,-263.96172043,-6.946361063947369,LiCr2P3O13
mp-764006,,,,,,,
mp-558377,4.5775,-1.1461827236857471,1.5363717357902917,0.003815861724139502,-745.37622242,-6.425657089827586,B2H12C3(NO)6
mp-554061,0.6891000000000007,-0.7554973171810339,4.516466532398165,0.014152229250000481,-51.30219783,-5.130219782999999,MnSbS2Br
mp-779867,,,,,,,
mp-770892,1.9515000000000002,-2.4798291985459175,2.58336553002297,0.028806262142857975,-411.20619012,-7.342967680714286,VPO5
mp-697242,4.9697,-0.649507103895925,1.0909820633832825,0.05679239324074459,-316.17554723,-5.855102726481482,H5C2NO
mp-12015,0.21319999999999983,-1.3609908030833329,5.026473201141094,0.0,-39.30455342,-4.9130691775,KAg2AsO4
mp-29693,2.9649,-1.7567558938522225,3.2942895951767426,0.0,-76.38274198,-3.182614249166667,Rb2AgCl3
mp-753670,2.838,-1.1557968958333333,4.457508628878516,0.00031696624999932865,-18.74286992,-3.1238116533333335,CaPbI4
mp-773144,0.7096,-2.04318035966023,4.254959743272681,0.08352096776041229,-177.13039984,-7.380433326666666,Mn3V2Cr3O16
mp-962058,1.9257999999999997,-1.4378621363123607,4.165480120045659,0.8281987508333346,-15.52942352,-5.176474506666667,YSeCl
mp-8380,4.6245,-3.04599047915,2.961155884818745,0.030744774666666252,-215.63041384,-7.187680461333333,K2Si4O9
mp-567051,,,,,,,
mp-28375,0.7134999999999998,-3.184210435840889,4.669536401683408,0.0,-91.35784176,-6.090522784,Ta2AgF12
mp-530316,2.5179,-3.7907931190625,7.123852674714746,0.10664287859374966,-549.30639053,-8.58291235203125,Dy2TiO5
mp-770843,1.2515,-2.04643148225,4.780085432481416,0.40849496349999903,-152.03822983,-7.6019114915,VCrO3
mp-541174,,,,,,,
mp-777489,3.0799,-2.4977853393806666,2.500294971552141,0.4367888046666657,-146.37478195,-4.879159398333333,LiFeF3
mp-676598,2.6022999999999996,-1.4302831852060003,5.96613710774311,0.03500923524999955,-135.89769061,-3.3974422652500005,TlPbCl3
mp-635331,,,,,,,
mp-773233,,,,,,,
mp-8930,0.8392999999999999,-0.4003340961999996,3.116954847055404,0.0,-36.31399225,-3.631399225,K2GeAs2
mp-771811,,,,,,,
mp-14988,2.1096,-1.5998929761875003,2.961486725657569,0.0,-271.76024787,-4.24625387296875,K4SnO3
mp-767574,,,,,,,
mp-849236,,,,,,,
mp-570548,2.7093,-1.5271747462328575,5.0182311027108595,0.0,-273.55709545,-4.8849481330357145,NaPr4I7N2
mp-849441,2.3272,-2.470703752406309,2.5647199006658825,0.10237760122539097,-221.55357599,-6.9235492496875,LiVP3HO10
mp-779989,3.3466,-3.1281935950281965,3.5796465004731615,0.026145935263173214,-657.7388693,-8.654458806578948,Gd2P4O13
mp-29488,1.4556999999999998,-1.6649406555,3.489915448056507,0.0,-82.79976332,-4.139988166,Na2ZnO2
mp-583034,0.41880000000000006,-3.6913325003409097,7.379551364942262,0.0,-193.49015493,-8.795007042272728,Ba2U2O7
mp-28044,4.917,-2.6915277057783333,3.9598020881771734,0.0,-38.0054443,-4.7506805375,TmCl3
mp-570646,0.7737999999999996,-1.588996168306667,6.556656348872249,0.0,-234.83354208,-6.523153946666667,Nd4Te3N2
mp-28194,2.0644,-1.772925975278,3.836664450317188,0.0012067949999998717,-68.46785636,-3.423392818,BiClF8
mp-540703,2.0957,-1.1801824779956898,3.9106440652922108,0.0,-35.21736818,-2.9347806816666666,Cs2S
mp-571103,0.2549999999999999,-0.4904859365773809,5.200053884475545,0.0,-51.42504264,-3.6732173314285714,In5AgSe8
mp-679936,1.1629999999999998,-1.32774462579,5.820451822810833,0.0,-211.75295195,-4.8125670897727275,Er7C2I12N
mp-25118,,,,,,,
mp-781073,,,,,,,
mp-10918,1.5802,0.036217998999999425,3.6463509226060515,0.05530287612500029,-25.41000473,-5.082000946,Rb2PdC2
mp-15789,1.9547000000000003,-2.1793981257291666,4.737621849408362,0.0,-22.17928193,-5.5448204825,LiDyS2
mp-764448,1.6123,-3.017811979858333,3.6169357510924267,0.043068265416667195,-150.87487295,-6.286453039583333,V2OF5
mp-715493,1.0063,-2.240262889886364,4.020495437781398,0.2743537086364256,-167.9279495,-7.633088613636364,V4O7
mp-779909,1.1462999999999997,-2.7710906449833326,4.154470978814182,0.024642206666669608,-131.10417758,-7.283565421111111,V6O7F5
mp-765556,,,,,,,
mp-770489,2.3775999999999997,-2.6107072762857144,2.974505673149206,3.2297425567499918,-278.91395404,-6.972848851,Li6Cr3Fe(PO4)6
mp-850074,,,,,,,
mp-753000,0.7238999999999995,-1.9066805070833326,5.763388077274248,0.018323268541674764,-141.08942319,-5.878725966249999,NaSb3O8
mp-600023,5.488,-3.263792310166667,1.5534722351844845,0.014205358999998197,-237.06098523,-7.902032841,SiO2
mp-763534,,,,,,,
mp-27187,4.8968,-3.2185388482437505,4.266620685275312,0.0,-85.38308021,-5.336442513125,Be2TlF5
mp-5126,3.8211,-1.9840638984375,3.7224537890783185,0.0,-134.47798295,-5.603249289583334,ZnSO4
mp-566934,,,,,,,
mp-625465,3.8243,-2.3230254261347616,6.046014923739977,0.034792250089282994,-86.38488554,-6.170348967142857,Tm(HO)3
mp-31850,,,,,,,
mp-761602,0.5348000000000002,-1.7163248039583323,4.826818382632383,0.1652224535416673,-68.00159165,-5.666799304166666,Li3Fe(CoO3)2
mp-25034,,,,,,,
mp-23419,2.6435,-1.6944341938881822,4.617282189654999,0.0,-117.78160754,-5.3537094336363635,Sb4Cl2O5
mp-756457,3.4478,-3.5636627133333327,6.881521894678708,0.024107774999995613,-106.06673599,-8.838894665833333,ErNbO4
mp-767189,,,,,,,
mp-769943,,,,,,,
mp-27169,3.1472,-3.305677156539473,7.22357024539035,0.0,-713.60320966,-9.389515916578947,KTa5O13
mp-776754,3.2092,-2.87025592329641,3.647263741652771,0.02649747115384571,-69.7044649,-5.361881915384616,Li2Fe3F8
mp-43188,3.8838999999999997,-2.9639904886956514,2.324898150912372,0.04082552427536079,-308.69662162,-6.710796122173912,Na8BeAl4Si7(BrO12)2
mp-996987,0.5072000000000001,-1.4366351560416666,4.492561273644697,0.021594026249999843,-40.49200217,-5.06150027125,LiCuO2
mp-13516,5.6941,-3.2625835995833334,4.396930042188769,0.0042829771562420405,-158.62900607,-7.9314503035,TmAl3(BO3)4
mp-744240,1.2637,-2.354425223649173,3.401693029814729,0.22008677078948669,-514.53486374,-6.770195575526316,CaFe2P3HO12
mp-14383,3.2291999999999996,-2.465189453633929,3.541955771897571,0.005388741406243014,-416.72831529,-6.51137992640625,KGePO5
mp-684470,4.0954,-2.5392457918406586,3.01572352179031,0.03760448174999542,-349.45765183,-6.720339458269231,Li3Sn2P5O16
mp-770746,,,,,,,
mp-776439,4.632099999999999,-3.9352523440833322,8.452390226261066,0.05160327275000043,-166.423996,-8.321199799999999,SmTmO3
mp-761447,,,,,,,
mp-25649,,,,,,,
mp-565314,,,,,,,
mp-696806,4.3425,-1.6577635391088894,3.6989707051372585,0.00961621638888932,-83.12594669,-4.618108149444445,BaH4(BrO)2
mp-28135,2.6481,-2.00191796043,3.312692233786601,0.0005193170673072345,-207.15385667,-3.9837280128846158,NbXeF11
mp-720874,5.6995000000000005,-1.5492811162774027,1.9549389368787156,0.05611398886725816,-254.35678204,-5.780835955454545,PH5NO4
mp-10804,5.4772,-3.3574681710118446,3.766171798030991,0.0030841949999889096,-116.9090818,-7.3068176125,NaYPO4F
mp-771579,1.7314999999999996,-2.233722935952381,6.4303627482802534,0.0307667459438834,-186.87298203,-6.6740350725,Li7W5O16
mp-2955,6.7529,-3.520011065380667,2.9492974654558703,0.0,-99.0832986,-4.95416493,NaMgF3
mp-763884,,,,,,,
mp-765918,,,,,,,
mp-566496,,,,,,,
mp-850431,,,,,,,
mp-715553,0.7775000000000003,-2.2123424708333324,4.052214794609341,0.2726206616666662,-90.11485808,-7.509571506666667,VO2
mp-27577,0.7475999999999998,-0.2130331424999999,5.668718235744903,0.005162999999999585,-37.18027532,-3.098356276666667,Cd2As3I
mp-767236,,,,,,,
mp-763148,,,,,,,
mp-11025,1.4656000000000002,-0.24857306613095295,3.489621880102524,0.0,-102.65401221,-4.27725050875,ZnP2
mp-780015,,,,,,,
mp-19563,,,,,,,
mp-697856,,,,,,,
mp-690515,1.0583,-1.4259590156133835,3.0241144381173433,0.04674255669117855,-87.62436992,-5.154374701176471,K2CoH2(SeO5)2
mp-769499,1.1604,-3.1245747811564626,4.82860730378846,0.08184374884779366,-389.56528833,-7.950312006734694,LiLa8V8O32
mp-541899,2.9022,-1.278363900586207,4.332299289960775,0.0,-26.20840855,-2.620840855,CsCdBr3
mp-38418,2.6327000000000003,-3.7964134995833336,7.06705669870174,0.021362857727270423,-192.4408585,-8.74731175,Tm2Ti2O7
mp-22216,0.8348999999999998,-0.9310015241249999,4.365749884371614,0.0,-164.61875745,-4.11546893625,In2S3
mp-762063,0.8289999999999997,-1.0764309790833333,4.318233423121371,0.046295452666668346,-134.43784814,-4.481261604666667,Na4Cu6O5
mp-505311,1.0065,-2.325323991276041,5.066493791774995,0.037512875351562336,-99.8615897,-6.24134935625,Sr2CrCuSO3
mp-761957,,,,,,,
mp-650816,1.0340999999999996,-2.7905947727380953,5.3418852359538285,0.07422593236111652,-312.08238349,-7.430532940238095,La5V3S6O7
mp-556332,,,,,,,
mp-1019379,3.5966000000000005,-1.142869744315,3.3826825362089976,0.36074231437499904,-64.73659446,-8.0920743075,AlB3N4
mp-777418,3.5946000000000002,-2.607774779727618,3.0378440773623963,0.3970378992857162,-66.98153348,-4.784395248571428,Li2FeF4
mp-694537,,,,,,,
mp-762807,,,,,,,
mp-24303,5.4068,-1.568066860808111,1.6516716655680996,0.0028537319288357565,-461.64791627,-5.30629788816092,Mg3P4H48(NO15)2
mp-772255,1.8792000000000002,-1.990821427464285,2.7512267345783177,0.012234116000004569,-193.22157645,-6.440719215,CuPO3
mp-19238,0.23070000000000057,-1.0564580422499994,10.599777298936548,0.0,-237.94245664,-5.9485614159999995,Co(PtO2)3
mp-743511,2.2892,-2.1283943695778826,2.732220529752713,0.05496624796302019,-170.45060463,-6.312985356666666,CaV2P2(H4O7)2
mp-771850,,,,,,,
mp-754629,1.0829,-0.45214053936444365,5.761176905972836,0.09863283932555156,-90.65847739,-10.073164154444445,WN2
mp-764633,,,,,,,
mp-540543,,,,,,,
mp-754824,2.5643000000000002,-3.033851486458333,4.11460830286429,0.050893047500001565,-24.00569939,-6.0014248475,SrO
mp-667421,3.3955,-2.38423859925,4.636886861463981,0.004182493999999259,-707.78331806,-5.898194317166667,SrTeO3
mp-675462,0.4815000000000005,-0.5747814981249998,6.599493823747654,0.00210003321428065,-195.89110315,-6.996110826785714,Mo2RuSe4
mp-18924,0.32230000000000025,-2.6133015070454535,4.9433616458472915,0.0,-70.76134723,-6.432849748181818,Sr3(FeO3)2
mp-753954,0.6331,-1.2963589220555558,2.7194116679523277,0.028198893333333253,-76.25582912,-4.236434951111111,CdCuH8(ClO)4
mp-31817,3.9523,-2.4902072235588975,2.6148918257859535,0.13390712150000184,-258.93841813,-6.814168898157895,Li2Fe(PO3)4
mp-32092,,,,,,,
mp-27441,1.4342000000000001,-0.9983342493014705,5.195711361866111,0.0,-168.41082277,-4.9532594932352945,Au2Se4O11
mp-625733,4.02,-2.309415567801428,4.4152780310573645,0.00017383642857637938,-87.11624494,-6.222588924285715,La(HO)3
mp-763016,,,,,,,
mp-771762,3.1298,-2.680132349,6.670587448666426,0.0,-277.88571428,-6.947142857,Ho3Sb5O12
mp-14377,3.899,-2.74717488178125,4.826066674474502,0.0,-486.33131404,-7.598926781875,KTaGeO5
mp-565297,,,,,,,
mp-1019745,4.7468,-3.207085763527778,2.978001386980683,0.01456811365162114,-249.34711299,-6.926308694166667,K2Ca3Si3O10
mp-27374,1.2044000000000001,-0.5484001582031253,3.8017416388092515,0.0016254885937483365,-242.49847445,-3.78903866328125,NaAsSe2
mp-625188,,,,,,,
mp-27853,1.6995,-0.3420832942857143,6.919129028536166,0.0,-25.73185012,-1.8379892942857143,Hg3(TeBr)2
mp-566008,,,,,,,
mp-25165,,,,,,,
mp-566933,,,,,,,
mp-764764,0.625,-2.1668496958226053,3.9059078071712943,0.013530875833336786,-307.43823979,-6.404963328958334,Li7Mn5O12
mp-32115,,,,,,,
mp-764012,,,,,,,
mp-567714,2.6678,-1.3115793488888887,3.858200846761088,0.0,-70.29541166,-2.9289754858333334,Rb2AgBr3
mp-566089,,,,,,,
mp-625394,3.7165,-2.30958940423,4.38074262737981,0.0,-87.11867865,-6.222762760714287,La(HO)3
mp-779153,0.22140000000000004,-1.8440046087486885,4.417811659771468,0.1054246062499935,-92.78250967,-6.185500644666666,Li3Mn2(CoO4)2
mp-4429,4.8375,-3.45880643175,2.8189200685416416,1.0116666667059349e-05,-224.72329173,-7.490776391,CaSiO3
mp-778284,1.2409000000000003,-2.1628995216666667,4.7260472955998996,0.09633920741071478,-180.77411456,-6.456218377142856,Li4V3Co2Sn3O16
mp-754781,1.6875,-1.7703083337328565,6.059322067389471,0.047907499285712696,-84.33179338,-6.023699527142857,Ga3NO3
mp-764463,,,,,,,
mp-25724,,,,,,,
mp-773563,,,,,,,
mp-756098,3.6125999999999996,-1.6848243752777778,3.9089646201034176,0.06893306916666697,-39.62686919,-3.3022390991666666,BaSrI4
mp-765608,0.5895000000000001,-1.5418602219468307,3.8869966232249955,0.40780180886904827,-258.12908112,-6.145930502857143,Na7Mn11O24
mp-752581,3.9466,-3.5979703861904753,6.409666347706747,0.013479812857143614,-222.01840742,-7.929228836428571,Sr2HfO4
mp-1735,1.6149,0.09337862333333291,3.795557175934404,0.1597813344444452,-20.0923746,-6.6974582,BaC2
mp-773195,,,,,,,
mp-8956,0.6113999999999997,-2.4586755558750006,6.6306481035423985,0.007927725999999247,-127.50866048,-6.375433024,Ho2S3
mp-707097,3.1404,-1.8905578539399996,4.46309574630594,0.1130946367401986,-480.55324737,-7.0669595201470585,NaGdRe4(H2O5)4
mp-762483,,,,,,,
mp-620369,0.5110000000000001,-0.5477974365773812,6.123193776187628,0.006997229642857761,-120.38516798,-4.299470285,TaAg7S6
mp-15144,0.2506999999999999,-1.3643257977083327,6.008713812910116,0.017399808802084138,-78.87859721,-4.929912325625,ZnAg2GeO4
mp-772564,0.27879999999999994,-1.340994691498095,2.030538448420028,0.0851661768452372,-237.20959588,-5.64784752095238,NiH8(CO5)2
mp-758780,4.357,-2.5013701350054123,4.082771536542995,0.0590343773636377,-295.42656289,-6.714240065681818,LiBiP2O7
mp-532604,1.2721,-1.9500608235601518,3.4952561565928177,0.0,-481.63385776,-5.47311202,Na2Zr12B2I5Cl23
mp-556130,2.3438,-1.6040749737000002,3.5597831775542774,0.005406712239580447,-152.43234729,-3.1756739018749998,GeXeF10
mp-752658,2.1837999999999997,-3.370871788302084,5.426564311174501,0.0,-41.77375067,-8.354750134,Y2SeO2
mp-775755,1.0161000000000007,-2.335272053095239,4.680811519734232,0.05617276821427897,-183.74457949,-6.562306410357143,Li4Ti3Ni3(SbO8)2
mp-13960,4.477399999999999,-3.3809527396825394,5.285457586406305,0.02655672357142791,-651.47539634,-7.755659480238095,Sr3Er2(BO3)4
mp-5088,3.1174,-3.089683253125001,6.04377323210374,0.0,-72.47681839,-9.05960229875,NaGdO2
mp-16159,2.5919999999999996,-3.2758208250390632,5.234343636640472,0.0,-490.08855589,-7.65763368578125,Pr4Si2S3O7
mp-40886,5.5306,-1.918272086228824,2.5729494764559466,0.17900567029412162,-93.26689906,-5.48628818,ZnC2S2(OF)6
mp-559533,4.4484,-2.1792923688657413,2.192239147369914,0.0,-344.34599668,-6.376777716296296,NaLiCO3
mp-867656,3.6515,-0.8294645672328566,1.5785520364357444,0.06736323242666398,-253.78638107,-6.042532882619048,LiH2N3O
mp-776038,,,,,,,
mp-16107,3.9206000000000003,-0.8141626596304292,3.312249965286272,0.0,-556.72705857,-6.9590882321250005,Rb3P6N11
mp-776282,,,,,,,
mp-695873,4.825799999999999,-1.77008622709281,2.1819648523477815,0.03199868366667058,-345.24973644,-5.754162274,ZnP3H12NO13
mp-757360,2.6896,-1.2883822321306253,4.225980058573291,0.037160258828121684,-152.91772115,-4.7786787859375,HgTe(HO)7
mp-697840,1.7675999999999998,-3.2669562144500004,6.303400543846987,0.029515141950000157,-408.19222782,-8.1638445564,Ba3La7Ti3Cr7O30
mp-555608,4.711,-3.0744979865357136,2.73003679917764,0.011542644249998624,-290.55882033,-7.26397050825,Na3Sc2(PO4)3
mp-765690,,,,,,,
mp-31753,,,,,,,
mp-759198,1.868,-2.449887789206111,4.343215120574236,0.08655797166666712,-51.2227038,-4.26855865,Li2AgF3
mp-6112,0.6975,-0.44260946021428565,2.937849198512827,0.0,-72.6793668,-2.5956916714285714,K6Na3GaSb4
mp-568779,1.4883000000000002,-1.3190185763671873,6.611406786099578,0.0,-127.45059777,-5.31044157375,Tb3CuSiSe7
mp-532290,5.204,-3.774262346860526,4.709613548510401,0.0,-490.19501947,-6.449934466710526,Zr3BiF15
mp-763803,,,,,,,
mp-27575,2.8665,-2.228743272457419,3.552277429213619,0.0019936866666707687,-266.08462183,-4.2916874488709675,Te5(O2F11)2
mp-8405,0.2121000000000004,-0.8799035441666666,4.804447811585592,0.0,-24.2001961,-4.033366016666666,Li3LaSb2
mp-1019536,,,,,,,
mp-17056,4.1074,-2.5521563045578235,3.2496176882304013,0.009858315654753369,-260.57655196,-6.204203618095239,LiZnPO4
mp-558951,5.364199999999999,-2.6229085603328572,2.148267170000603,0.0010289918472965454,-602.24005996,-7.169524523333334,K2B6H2O11
mp-571648,1.2152,-1.826703966023908,2.778416298354063,0.0,-35.08621617,-3.8984684633333333,Rb2MnCl6
mp-23060,0.6483999999999999,-0.8207195617624521,5.0199041547346095,0.0,-24.3922429,-2.710249211111111,Cs2PtI6
mp-771679,,,,,,,
mp-9250,2.309,-1.1801148338368053,3.4822038020424566,0.0,-19.85142581,-3.308570968333333,RbLiSe
mp-764061,,,,,,,
mp-761525,,,,,,,
mp-760812,0.8739,-2.5839095279640003,3.2151699418791715,0.044935026250007226,-176.75348525,-4.41883713125,Li3CuF6
mp-770755,1.0164,-1.6636446301785708,3.172601534965808,0.6048079132142865,-150.99729939,-5.3927606925,Li3CrO3