id,band_gap,formation_energy_per_atom,density,e_above_hull,energy,energy_per_atom,pretty_formula
mp-510661,2.9577,-1.493141797,5.507044455,0,-304.3566654,-5.853012796,Gd(IO3)3
mp-9625,5.4297,-2.969840474,2.888396299,0,-186.4665842,-6.659520863,LiMgPO4
mp-631388,0,0.646362905,11.96718778,0.698535312,-17.10549165,-5.70183055,CdIrRu
mp-707775,4.8933,-2.34371585,2.099276756,0.015777197,-608.8320663,-6.617739851,K2B5H5O11
mp-555349,3.9406,-3.300387921,5.265120228,0.000139279,-399.6830158,-8.326729496,La2CO5
mp-865234,0,-0.347297369,12.4958964,0,-33.04951168,-8.26237792,TaZnRu2
mp-15706,0,-0.559163102,8.492355505,0.003698252,-234.760384,-7.336261999,LuB2C
mp-764595,1.2599,-2.306359918,2.627604617,0.092369923,-237.4421158,-6.595614328,Na2V2O5
mp-759786,2.8817,-3.349018815,3.362108952,0.010067448,-806.9174958,-8.405390581,Na2Ti7O15
mp-16958,0,-0.815047624,7.139091372,0,-114.7653712,-6.375853955,LaNi5P3
mp-19763,0,-0.656457859,9.105112058,0,-33.49798807,-6.699597614,EuGe3Pt
mp-561,0,-0.861734869,6.324016513,0,-100.6591185,-7.189937034,Nb3Se4
mp-17128,5.3085,-2.948647528,3.566562904,0,-261.9093399,-7.275259441,CsTb(PO3)4
mp-861909,0,-0.377711594,10.38600884,0,-20.15012522,-5.037531305,CdGaRh2
mp-1009483,0,0.921976439,7.461526872,0.964510469,-11.88677579,-5.943387895,NiN
mp-1018020,0,-0.138916221,6.780624484,0.063024532,-16.14159376,-4.03539844,NiAgSe2
mp-28921,0.3852,-0.497217144,8.020978251,0,-48.84099321,-3.052562076,Tl5Se2Br
mp-4022,0,-0.894799351,6.125215511,0,-79.05933869,-7.905933869,Zr2CoSi2
mp-758265,0,-2.111925991,4.162289821,0,-75.27438382,-4.181910212,LiCu2F6
mp-684591,3.3433,-3.320493213,3.482552514,0.125713924,-294.223344,-7.3555836,Al2O3
mp-978099,2.8375,-2.990030795,3.79432733,0,-207.8115057,-7.421839491,K3Gd(PO4)2
mp-722246,6.596,-2.020846619,1.865271141,0,-211.3788487,-5.032829731,SiH10(O2F3)2
mp-35690,0,-1.366819854,5.666043717,0.041256998,-88.39279031,-6.313770736,Co5RuO8
mp-33667,1.9742,-2.175903063,4.705036908,0.006856559,-44.29173175,-5.536466469,LiDyS2
mp-583684,0,-0.108476119,7.991740621,0,-43.30884519,-1.804535216,EuCd11
mp-30433,0,-0.675790895,8.186205047,0,-23.38856937,-4.677713874,BaSn3Pt
mp-541448,0,-1.094649626,3.298390437,0.002395859,-174.7151197,-4.853197769,Rb3(FeS2)2
mp-769511,3.0706,-2.403436578,2.783238916,0.015286218,-269.7345672,-6.743364179,NaLiV2O6
mp-16596,3.7221,-3.10614082,3.630915129,0,-532.3466165,-6.824956622,K3HoSi2O7
mp-643727,3.1072,-1.288038861,6.373903546,0,-71.79517603,-4.487198502,HPbBrO
mp-695955,5.1567,-1.469242629,1.884847154,0.084329621,-322.7673255,-5.977172695,P3H11N4O9
mp-771977,3.5511,-2.88303763,6.491498451,0,-86.65981312,-7.221651093,TmAsO4
mp-603633,3.7786,-1.926062973,2.572218149,0.0103618,-352.6891465,-6.298020473,SnP4H8N2O13
mp-21495,0,-0.562010413,6.917187447,0,-100.7694413,-8.397453439,CrFeP
mp-672341,2.7458,-3.701136182,4.373238541,0.008684722,-182.8986012,-6.5320929,UF6
mp-568021,0,-0.431042821,7.974375587,0,-28.83102445,-5.76620489,Er3AlC
mp-7206,1.5754,-1.551398861,5.135290603,0,-78.80240873,-6.566867394,TcAgO4
mp-29332,0.5193,-1.303333644,9.289454368,0.002940678,-157.9550761,-5.641252719,Pt(PbO2)2
mp-983583,0,-0.299680164,9.018390871,0.00884549,-15.70566214,-3.926415535,Er2ZnCu
mp-570557,0,-0.08747641,9.003408713,0.060314128,-190.758167,-7.948256957,NbCo3
mp-22902,0,-0.368131822,7.440327258,0,-6.54248123,-3.271240615,LiBi
mp-755592,0,-2.42044115,4.39671991,0,-136.2001032,-5.675004302,K2TbO3
mp-643385,3.7424,-2.073379285,4.216915502,0,-75.85112637,-4.740695398,SrHIO
mp-20582,0,-0.50999827,6.775542087,0,-8.69844641,-4.349223205,LaIn
mp-8950,0,-1.187213531,8.277194419,0,-36.30543972,-6.05090662,NdAsPd
mp-15442,0,-0.917385834,13.473173,0.026140124,-357.1975056,-6.614768623,SmSi3Pt5
mp-754140,4.1419,-2.313278424,3.705145942,0.011814914,-118.9497276,-5.947486381,CaSeO3
mp-1007857,0,0.02411736,6.097350337,0.02411736,-12.02620516,-3.00655129,Ga
mp-1148,0,-0.518291215,11.78529333,0,-43.10564667,-7.184274445,Th2Pd
mp-689940,1.1544,-2.140678151,2.850393174,0.005948624,-161.5820734,-6.732586393,CoPO4
mp-541937,0.1364,-0.941428778,4.169268321,0.05818206,-27.22421909,-3.889174156,Zn(InS2)2
mp-1018694,0,-0.575831812,8.46996088,0,-21.19680421,-3.532800702,ErZnGa
mp-976948,0,0.461065899,7.700938323,0.517113759,-37.46048501,-4.682560626,Ni3H
mp-755805,0,-1.99514275,5.476957254,0.004847391,-90.80556322,-6.486111659,Sc(CuO2)2
mp-764909,0.2739,-2.53361864,3.178146945,0.08835995,-202.3355254,-6.977087084,Li5Mn3Cr(PO4)4
mp-583234,0,-0.087078864,8.264295787,0.041725888,-70.18973321,-3.509486661,Bi4I
mp-971941,0,-0.151932539,8.020841294,0.039126848,-10.20446711,-2.551116778,Zn3Ni
mp-28705,0,-0.6194795,7.675385659,0,-41.11703874,-6.85283979,CaB2Rh3
mp-766175,4.0389,-2.547957969,3.582451877,0,-201.526698,-6.717556601,RbInBP2HO9
mp-866025,0,-0.326815318,6.011691886,0,-78.79364484,-5.628117489,CsCr5Te8
mp-38089,0.4926,-1.651834708,2.976245817,0.014032629,-238.6550934,-5.188154205,Na10Mn4O9
mp-770199,0,-2.416622969,3.527235909,0.04426184,-241.9712896,-6.72142471,Li2CoSn3(PO4)6
mp-557911,4.8194,-3.216374516,6.279007849,0.021664702,-287.1684673,-5.31793458,Al3Pb5F19
mp-31301,0,-0.279483022,9.31250531,0,-60.00458299,-3.750286437,LiSn4Au3
mp-13039,4.0216,-2.543991147,7.196235994,0,-60.34754291,-8.621077559,Tm2C(NO)2
mp-4967,5.5305,-2.537862778,2.813787409,0.001066,-148.8063637,-6.200265155,MgSO4
mp-39412,0,-2.781543859,6.022353561,0.001717432,-74.74137285,-7.474137285,SrLaMn2O6
mp-7941,2.7662,-2.144648986,3.118460314,0,-67.829179,-5.217629154,Li6TeO6
mp-19035,0,-2.258472865,6.115941728,0,-31.62303443,-6.324606886,BaFeO3
mp-772528,0.1153,-1.731212109,5.731355979,0.096986783,-120.3461282,-6.017306411,MnZnO3
mp-697180,0,-0.075559043,3.424702833,0.003737898,-31.46839756,-1.966774848,Mg3In
mp-974432,0,0.558175866,17.3104291,0.558175866,-39.10826559,-9.777066398,Re3Sn
mp-558539,4.3381,-2.472156693,4.114280379,0,-221.817264,-6.931789499,Cs2Ba2(CO3)3
mp-773024,2.0135,-3.165984181,4.130579215,0.024756219,-516.6875143,-8.07324241,LiCa2Nb3O10
mp-769365,2.0694,-1.323919541,4.674876532,0.049001603,-59.2230085,-4.935250708,ZnSeO4
mp-2806,0,-0.664681307,8.889744994,0,-13.73519584,-3.43379896,YbSn
mp-1175,1.0704,-1.516181836,2.960341116,0,-36.28407262,-4.535509078,SrS3
mp-29936,1.1296,-0.758191486,4.457200479,0.004336185,-92.59714283,-2.572142856,Rb2PdI6
mp-972320,0,-0.483752517,9.560854557,0,-186.7530967,-7.78137903,UNiB4
mp-865014,0,-0.098669553,3.373851162,0.009150265,-15.2079417,-2.53465695,Mg2Cu
mp-777082,1.9098,-2.348840131,3.838668767,0.086861379,-245.2096671,-6.811379641,TiNi3Sn2(PO4)6
mp-568,0,-0.391348074,7.376416842,0,-34.65172803,-5.775288005,TiSb2
mp-760402,0.971,-2.412324295,8.280271115,0.013873168,-101.1640032,-8.430333599,TaRhO4
mp-16644,0,-0.882085453,8.576720225,0,-45.27330502,-5.030367224,PrMgPt
mp-540949,3.4284,-3.281637995,5.348147875,0,-229.8928387,-7.663094622,Ba3SrNb2O9
mp-580155,0,-0.540006159,7.829152633,0.00197179,-193.385729,-8.790260411,U(Cr3P2)2
mp-977382,0,-0.27951617,13.47347585,0,-43.17420342,-10.79355086,Ta2VRu
mp-683906,0,-0.365883436,8.90059879,0,-187.1855726,-3.899699429,Yb5Cu11Sn8
mp-16819,3.4732,-1.647912152,5.287729482,0.000917297,-202.6723863,-5.066809658,ZnTeO3
mp-6880,4.6355,-1.931843941,3.050387018,0.077102654,-338.7782081,-6.273670519,Sb2OsC6(OF2)6
mp-866094,0,-0.195867196,10.50891296,0,-20.20910796,-5.05227699,HfZnCu2
mp-677093,0,-0.929671661,4.37090097,0.035571478,-71.01159261,-5.072256615,Cr(InS2)2
mp-697806,0,-1.752555073,2.890589537,0.182500084,-280.8267131,-6.104928546,Ni3(PO4)4
mp-983365,0,-0.062139781,2.563621836,0.062231762,-3.88325254,-0.970813135,K3Hg
mp-772141,2.5891,-1.675604074,4.932511618,0.024990947,-144.6609371,-3.616523427,Ba2LaI7
mp-28730,2.1903,-1.229280188,3.884658435,0,-200.8646006,-3.138509385,In7Cl9
mp-27741,1.0295,-0.137425963,6.752863744,0,-33.38949556,-2.782457963,TeAuI
mp-759861,0,-2.842930131,4.040986862,0.001311394,-267.3118462,-7.034522268,Yb2P4O13
mp-5792,0,-0.440856639,6.502811962,0,-31.61221475,-3.951526844,BaCuSn2
mp-567478,0.6263,-0.458125165,5.25618833,0.006556607,-96.74093964,-4.837046982,MnSbSe2Br
mp-19965,1.9881,-3.228083315,5.629563293,0.036105755,-155.5247682,-7.77623841,K4BaU3O12
mp-17323,0.7699,-2.822182715,4.15113862,0.017879525,-264.721296,-7.78592047,TbCu(BO2)5
mp-17325,0,-0.619401571,4.856525968,0.009084966,-53.2127464,-3.32579665,Ba5Sn3
mp-756721,2.2507,-1.647288091,7.393665591,0.031083652,-155.405962,-5.550212929,NaBi5O8
mp-697815,0.3403,-2.127201861,2.627429278,0.141073521,-302.6153382,-6.877621323,Cr(PO4)2
mp-752420,7.0439,-4.313801504,4.839770425,0.019966394,-218.1795529,-6.417045674,Ba3Y2F12
mp-763248,0,-2.11503921,2.901977486,0.093391805,-121.9883011,-7.175782418,V4FeO12
mp-998151,3.9908,-2.176985249,3.701070771,0.038912617,-19.01572314,-3.803144628,CaTlCl3
mp-2653,5.2416,-1.3785638,3.449931131,0.092985648,-34.77625276,-8.69406319,BN
mp-554704,2.8523,-2.80220391,2.964485407,0,-240.3854624,-7.512045699,TiPHO5
mp-767945,0,-1.761519991,5.082672993,0.064578382,-334.1326541,-5.966654538,Mg7Co17O32
mp-570610,2.4284,-0.59210556,4.818213415,3.14E-05,-74.4792037,-1.909723172,CdI2
mp-755428,1.2272,-1.575694149,3.246622931,0,-65.63333728,-3.281666864,Rb3ClO
mp-2983,3.9118,-1.051935673,4.599594675,0,-623.0114498,-7.416802974,Ba(PN2)2
mp-29910,3.5856,-1.987498029,4.673423986,0,-83.87892479,-3.8126784,Sr4I6O
mp-542115,1.9291,-1.036685699,6.487252772,0,-140.4613854,-4.389418293,Hg3Se3O10
mp-571216,0,-0.504173477,4.466917782,0,-35.57691255,-3.952990283,Sr3(AlGe2)2
mp-30668,0,-0.168473164,13.4937331,0.09152107,-139.4341539,-8.71463462,Ta5Ga3
mp-776641,1.6497,-1.553225835,2.863999815,0.004335756,-88.73184217,-4.436592108,Na5CoO4
mp-30840,0,-0.60404691,8.738525334,0,-68.69783021,-6.869783021,Ti2Pd3
mp-568029,0,-0.410302511,5.488531887,0,-353.0457937,-4.011884019,Mg15Si2Ir5
mp-570245,0,-0.662557684,5.168380115,0,-45.53572557,-4.553572557,Ba2GaGeN
mp-561424,6.9088,-3.671745971,2.749156072,0,-130.2844555,-5.428518977,KAlF4
mp-975050,0,0.914817705,2.604749908,0.914817705,-6.50032093,-1.625080233,Rb3Co
mp-4376,7.2832,-4.064777319,4.270764514,0,-164.915555,-5.889841249,BaAlF5
mp-1001837,0,0.245654489,5.264476523,0.895638715,-15.78082843,-7.890414215,MoP
mp-16234,0.1899,-0.4366959,6.213273788,0,-37.96116999,-3.163430833,CsAg3Se2
mp-557853,0.0229,-1.533163466,1.798030204,0.078439788,-473.1883867,-6.572060927,TiH8C4NO10
mp-972751,0,0.538566517,4.100351699,0.538566517,-18.74443163,-4.686107908,Si3Ge
mp-9668,1.4487,-2.23891671,4.028736977,0.003338416,-102.2865028,-5.682583489,Ba3TiS5
mp-30292,1.3815,-1.81556413,6.380297837,0,-123.5478041,-6.863766897,Nd4Se3N2
mp-569168,0.6165,-0.991254501,5.774009543,0,-185.9355203,-3.873656672,Ba6NaCu3Te14
mp-10898,0,-0.627091459,5.675436257,0,-24.14551903,-6.036379758,ScAlNi2
mp-769045,2.8758,-3.191396405,7.475575115,0.019312513,-217.4697482,-7.248991607,HoGaO3
mp-621852,0,-0.662857251,8.300549805,0,-134.7870879,-6.739354396,La2Ge5Ru3
mp-2093,0,-0.161209624,6.225347786,0.0302668,-18.74398604,-4.68599651,Pr3Al
mp-209,0.851,-1.879698778,6.64937502,0,-116.0072581,-5.800362903,Er2Se3
mp-19172,2.0867,-2.381848832,3.092399634,0,-171.3909157,-7.141288154,KV3O8
mp-767572,1.7845,-2.949499638,2.506739596,0.063360708,-167.9723687,-5.249136523,Li2MnF5
mp-581736,0,-0.759423438,7.671889749,0,-43.47042102,-8.694084204,Eu(SiRu)2
mp-19189,2.9292,-1.636795587,3.787291278,0,-57.79890441,-5.254445855,K2Co(SeO3)2
mp-26390,0.6585,-2.856988872,3.150684416,,-529.8601781,-7.792061442,Nb2(PO4)3
mp-996979,0,-1.747405607,6.041040813,0.027831509,-40.39144009,-5.048930011,BaAgO2
mp-31452,0,-0.303421525,9.57054233,0.074910738,-19.13428795,-6.378095983,ZrNiBi
mp-20146,0,-0.56861334,7.956537194,0.023885074,-71.00804205,-7.100804205,Zr2Ni2Sn
mp-780440,3.1381,-2.425569209,3.233819515,0.003744482,-334.1194958,-6.960822829,Li8MnFe7(BO3)8
mp-867287,0,-0.410951191,11.73464018,0,-12.85087901,-3.212719753,LiInAu2
mp-865232,0,-0.17012942,14.25146478,0.001087653,-16.67737238,-4.169343095,TlPd2Au
mp-1018141,1.3854,0.179804624,4.533266924,0.242278823,-19.83612695,-6.612042317,BaC2
mp-766023,0.4178,-2.599769009,3.410735228,0.077346939,-259.2039536,-6.821156672,Li2Cu2Si4O11
mp-560936,3.9484,-3.118862754,3.769106844,0,-50.70709867,-5.070709867,Rb2NaCrF6
mp-974038,0,-0.085552794,15.83584637,0,-292.8774423,-10.45990865,Ni2W4C
mp-769073,2.331,-3.008097886,2.830031574,0.014480645,-277.2166134,-7.492340903,Na2LiTi3Al(PO4)6
mp-559068,1.6001,-1.416684221,3.53742957,0,-67.06216023,-5.15862771,Na2Pd(SeO4)2
mp-11974,0,-0.909355797,10.41413977,0,-55.68774308,-6.187527009,TmSnRh
mp-560098,1.905,-1.857103277,6.234509824,0.001732618,-145.2118915,-6.050495478,SbO2
mp-28395,2.5139,-0.29105566,2.588885394,0,-95.03668705,-6.788334789,B6P
mp-765721,1.7909,-2.274425292,3.547373442,0.096769187,-190.9458461,-6.364861535,Na4V3O8
mp-569346,1.2172,-0.147379915,5.746819131,0.008815107,-11.82622268,-2.95655567,CuI
mp-781613,0,-1.602010347,4.704027917,0.075457726,-163.4712877,-5.838260274,Li4Fe3Co5O16
mp-17650,2.5331,-1.381945617,2.778545934,0,-132.7809801,-4.149405628,KGaS2
mp-632692,0.7442,-2.444813394,3.449805806,0.02245225,-175.1974514,-7.007898057,LiFe4(PO4)4
mp-769460,0.1631,-1.943098435,4.11501908,0.003593535,-361.8141111,-6.460966269,Li9Mn12Ni3O32
mp-560468,2.7496,-1.875747402,4.001764131,0,-161.6130108,-5.771893242,Pr3Si2S8Br
mp-775335,0.5439,-2.155173311,4.118465852,0.044991639,-192.7952713,-6.885545402,Li2Cr3FeO8
mp-22758,0,-0.772275043,13.57557306,0,-87.4661191,-8.74661191,U(SiIr)2
mp-28534,3.1474,-1.510118787,3.890288837,0,-34.38358281,-3.438358281,CaInBr3
mp-3731,3.3322,-2.914953493,4.399175655,,-74.81874953,-7.481874953,LiNbO3
mp-569267,0.3276,-0.795775012,4.788551972,0,-68.61156577,-3.430578289,Ca2CdSb2
mp-759882,3.7553,-0.888829543,2.011015944,0.07618354,-329.4770679,-6.336097459,AgBH8C4(N2F)4
mp-16795,7.1355,-4.052759805,2.8540861,0.003244175,-164.8898691,-5.888923898,CaAlF5
mp-541569,2.1585,-1.07082028,5.170633278,0,-253.8622935,-6.346557336,Sr2Li3TaN4
mp-865808,0,-0.399376191,8.682472885,0.026827065,-21.89949545,-5.474873863,LiNd2Ir
mp-631546,0,0.926915808,9.384896582,0.940136584,-10.59444102,-3.53148034,TlCoBi
mp-17987,0,-3.468535469,7.735756728,0.086021425,-242.955015,-7.837258547,Tb11O20
mp-13435,0,-0.393212878,7.685814301,0,-33.01096138,-5.501826897,CeMgNi4
mp-1649,0,-0.081158685,11.53591867,0.038619725,-31.76095625,-7.940239063,Fe3Pt
mp-2324,0,-0.347205255,7.616958583,0,-7.65476593,-2.551588643,PrCd2
mp-673023,4.8102,-2.555234738,3.588862415,0.031537099,-496.6264102,-6.897589031,LiBi(PO3)4
mp-752888,0,-2.328274096,3.219463351,0.085380417,-97.74481653,-6.109051033,Li2CuSiO4
mp-583553,2.6067,-1.369227835,3.791334503,0,-460.732914,-5.484915643,Mo6PbCl14
mp-631502,0,0.383226142,10.71327928,0.400382432,-19.9640027,-4.991000675,CrNi2Hg
mp-6962,0,-0.759451598,7.562021897,0.020204336,-25.37381904,-5.074763808,Ba(AsPd)2
mp-756912,2.972,-2.390266411,3.409173276,0.04604288,-147.5206804,-6.146695018,LiZnBO3
mp-604459,5.115,-2.365204616,1.974022964,0.009297582,-1011.724982,-6.656085408,Li2B4H4O9
mp-12678,0,-0.223748532,12.24098722,0,-123.380805,-10.28173375,TaMn2
mp-557900,3.8004,-2.051014452,2.742709905,0.037420628,-243.2963753,-4.34457813,SbCSCl2F9
mp-560297,3.8065,-3.217192913,4.976024861,0,-264.2334649,-8.257295777,LiTaSiO5
mp-607,0,-0.285989755,10.44446825,0,-50.64866147,-8.441443578,CeRu2
mp-510099,0,-0.109737775,15.57217695,0.002534512,-84.83676477,-3.262952491,In3Au10
mp-31739,0.1233,-2.574141527,2.591526418,0.042810338,-279.0101091,-6.975252729,Li2CrP4O13
mp-16184,1.7001,-0.513817382,3.682742225,0,-90.93721042,-4.133509565,Rb2B2Se7
mp-505815,1.0821,-1.590909936,5.344622259,0,-83.06628504,-5.191642815,CsLa2CuSe4
mp-766881,2.3623,-1.312553488,2.612858353,0.020072971,-189.7286052,-4.992858031,H7SIO10
mp-973920,0,-2.706446957,11.19907521,0.685879819,-78.25275049,-8.694750054,Lu2Ta2O5
mp-13074,0,-0.409322941,12.02143113,0,-45.70069816,-5.077855351,LuNiPb
mp-569813,0.2853,-0.306107312,5.499756056,0,-46.01278867,-3.286627762,In5AgTe8
mp-568336,0,-0.931220887,10.78607022,0,-144.164026,-7.2082013,Lu2Si5Ir3
mp-866062,0.1708,-0.802992501,11.45137595,0,-37.12355322,-9.280888305,HfSiRu2
mp-971891,0,-0.381228145,11.73216517,0.003332315,-12.52232981,-3.130582453,Zn2PdAu
mp-552056,2.9001,-1.598383957,5.574744188,0.050364523,-61.25109331,-6.125109331,PbCClO2
mp-672339,0.7247,-0.133763721,6.950178259,0.012033279,-63.25245611,-2.750106787,Ag2Hg7(P4I3)2
mp-684503,4.2059,-2.522200825,3.318927161,0.036096914,-381.9812056,-6.821092958,LiSn(PO3)3
mp-1006132,0,-0.011262524,13.72657909,0.010920239,-67.21841091,-8.402301364,Hf3Pb
mp-753649,4.161,-2.774801783,2.508063193,0.052755472,-170.396977,-7.745317135,LiZrPCO7
mp-769036,1.085,-1.450238031,2.563378206,0.043243993,-376.8973958,-4.959176261,Li8Nb2S9
mp-1019108,0,-0.704476147,7.287398132,0,-38.73017811,-6.455029685,SmCoSi
mp-607990,0,-0.772338278,8.934247813,0,-279.5630072,-7.765639089,Hf2Co3Si4
mp-3503,3.059,-0.923266125,4.19750877,0,-132.7465563,-6.033934377,Li6WN4
mp-8177,0.9684,-1.726025674,8.773296181,0,-8.32286774,-2.774289247,HgF2
mp-23508,0.1608,-1.669318628,3.044353707,0.010865175,-45.66598303,-3.261855931,Rb2CuCl4
mp-634434,4.0009,-0.45834386,1.739537941,0.035541302,-128.0011018,-6.400055088,NaHCN2
mp-561356,2.1521,-3.026902447,4.502548406,0,-417.2725441,-7.451295429,Cs2UP2O9
mp-772417,1.0027,-2.170195994,4.068203331,0.064332178,-186.8457919,-6.673063995,Li4V3Fe5O16
mp-643,4.425,-4.391779149,9.882025209,0,-29.0380717,-9.679357233,ThO2
mp-567598,0,-0.913803235,9.970456297,0,-66.30242692,-6.027493356,Dy7(TeIr)2
mp-769533,1.295,-2.539538306,2.692804026,0.056439838,-254.9084419,-7.080790053,LiMn(PO3)4
mp-541754,0,-0.411531148,6.510115748,0,-55.98428834,-4.665357362,TiCu2Te3
mp-600154,0.7675,-1.543700507,2.043386501,0.074868286,-323.073289,-5.982838686,K2CuH8(CO3)4
mp-20405,0,-0.233528275,6.898344739,0,-69.89290371,-4.992350265,V2Ga5
mp-24058,3.044,-2.215103459,3.259356294,0,-366.6497627,-5.092357816,AgBH2OF4
mp-754184,3.5637,-3.71559025,6.833303339,0.085702263,-79.1454224,-7.91454224,ErAlO3
mp-5679,3.0437,-1.953644277,4.432824782,0.010633028,-66.01335863,-5.501113219,CdSO4
mp-14001,0.9853,-1.002436281,4.747380745,0,-325.8958825,-4.526331701,Ba4SiAs4
mp-37501,0,-0.000974211,6.749973065,0.130528072,-67.82659869,-3.391329935,In10Sb9Te
mp-758070,0.3226,-1.849445817,4.32463706,0.122148906,-47.21757884,-5.902197355,LiCu2PO4
mp-760690,2.6376,-1.983980618,3.198503231,0.084638161,-73.52439674,-4.901626449,Li8TeO6
mp-1719,0,-1.43796634,14.20341766,0,-25.16017602,-12.58008801,PuN
mp-631533,0,1.882845223,9.686891139,2.130089042,-16.42235673,-5.47411891,PPbW
mp-628951,1.6512,-2.594608426,3.27824145,0.016006777,-389.5265825,-7.490895818,V2P2O9
mp-12846,0,-0.617210135,8.078528275,0,-44.13553248,-3.67796104,YbGaGe
mp-675426,5.8711,-4.204427479,5.09763789,0.054317897,-77.99997086,-5.999997758,Ba3PrF9
mp-764559,1.8038,-2.361897172,3.21429335,0.057907652,-312.2321905,-7.096186147,LiFe2(BO3)2
mp-756432,1.5033,-1.936457908,4.783025007,0.024047453,-106.7135427,-5.928530149,Li2Ti(TeO4)3
mp-559702,3.0578,-3.446821764,6.936015717,0,-110.1795684,-8.475351416,Pr2Ta2Cl2O7
mp-558226,5.5568,-1.359669738,1.339033537,0.033437999,-177.4187727,-4.928299242,H2O
mp-5688,0,-0.679781419,7.543530549,0,-35.73661436,-7.147322872,Er(FeSi)2
mp-763194,0.495,-2.435364101,3.123088676,0.080434554,-164.7386406,-7.488120028,LiMn2(BO3)2
mp-569788,0,-0.242383646,4.818966622,0,-25.59208985,-2.843565539,LiZnGe
mp-19867,0,-0.554201028,10.11146962,0,-47.79828453,-7.966380755,NpAs2
mp-570561,0,-0.711361965,6.214729029,0,-50.44533383,-5.044533383,Dy2MgSi2
mp-865793,0,-0.552245688,4.670742479,0,-24.12896743,-6.032241858,LiSc2Rh
mp-558831,0.659,-2.296228409,5.769814041,0.014512226,-75.02037574,-6.251697978,KNdPdO3
mp-23803,3.0004,-1.937777323,5.184995875,0.015278566,-44.94868997,-5.618586246,GaHO2
mp-1878,0,-0.185246086,3.979206859,0,-122.0623593,-4.359369975,HfBe13
mp-553977,0.1379,-2.561225095,3.268437794,0,-227.8621693,-6.329504703,K4NpS2ClO10
mp-623087,1.1555,-0.292805508,5.781642359,0.008027337,-151.4185492,-4.453486741,Re3(TeBr)7