id,band_gap,formation_energy_per_atom,density,e_above_hull,energy,energy_per_atom,pretty_formula
mp-773716,,,,,,,
mp-557319,3.5652,-1.4075171762711105,2.05500932269301,0.027871569409721356,-449.29858622,-6.2402581419444445,InH8C4NO10
mp-769466,3.8964,-3.0483066904924256,4.518414131798714,0.0049650502272733385,-85.41820445,-7.7652913136363635,Y2Ge2O7
mp-764874,1.5665,-2.346975048992247,3.1958463806366413,0.06398129863373114,-307.86816837,-7.159724845813953,Li3Fe8(BO3)8
mp-570226,1.1652999999999998,-1.2965018859505208,6.43351126267754,0.0,-125.79833741,-5.241597392083333,Sm3CuGeSe7
mp-28995,1.2505000000000006,-0.12790490527472487,4.118551873040744,0.0,-133.57853599,-5.137635999615385,Cu4SiP8
mp-766237,3.4374,-3.967512241583333,5.40580698370913,0.0007976023000004773,-386.88379817,-9.67209495425,Gd3Y13O24
mp-15081,0.3125,-1.8888552602395836,6.811374626196246,0.0,-117.46950275,-5.8734751375,Sm2Se3
mp-866620,5.3739,-2.266635390401325,2.8356638459816916,0.0,-189.155082,-6.101776838709678,Cs2MgP4(HO2)8
mp-23170,1.4430999999999994,-0.70667193375,4.975168380401209,0.009557298083326948,-97.08284643,-4.04511860125,IO2
mp-776741,0.7392999999999996,-1.8699404966199185,4.403284974891089,0.25382791982142106,-362.13561981,-6.466707496607143,Li2Mn3SbO8
mp-18596,3.0488,-2.576456833229168,3.9343834443822683,0.026769425868045538,-150.26109923,-6.260879134583334,Ca2ZnGe2O7
mp-5394,1.4810999999999996,-3.4838299747716674,5.4698971212973495,0.0,-40.56207406,-6.760345676666668,LaSF
mp-541476,,,,,,,
mp-578912,,,,,,,
mp-30537,5.362,-2.8343099813928574,3.446017597198851,0.0,-591.30524639,-7.391315579874999,TbP5O14
mp-565540,,,,,,,
mp-19049,2.8525,-2.211795578173077,5.1189405225576845,0.012098792115282642,-173.31174755,-6.665836444230768,BaTeMo2O9
mp-850404,1.8959,-2.3825511615872226,3.5773508994374223,0.05892888500000115,-135.04532315,-5.626888464583334,Li2FeO2F
mp-625836,3.0334,-1.048263025331515,2.8281994740930227,0.3847448995454572,-109.98234798,-4.9991976354545455,Sr(H2O3)2
mp-636571,,,,,,,
mp-686905,,,,,,,
mp-1019563,3.3025,-3.254786597857143,2.8507394989968207,0.2326074175000041,-98.37696837,-7.026926312142857,Ca2SiO4
mp-9947,1.8904,-0.19654902107142952,3.1713856487670204,0.009138701928571358,-105.30280962,-7.521629258571429,SiC
mp-705305,1.9533,-2.484617746112637,2.7116945401123163,0.16270017134615689,-376.60493469,-7.242402590192307,V(PO3)3
mp-722262,5.7435,-2.5365122312221438,2.4809825945216746,0.0,-387.95069665,-6.927691011607143,CaB3H3O7
mp-33449,1.7157,-2.2070951891666675,6.582949752177732,0.030048356339291264,-84.68761114,-6.049115081428572,Tb5AgS8
mp-27686,2.7154000000000003,-2.3604210441720785,4.657356931359863,0.0,-136.6465341,-6.211206095454545,Cd2P2O7
mp-776608,2.2671,-3.1647207827861905,3.5864641699144766,0.06812141702665997,-180.43564348,-8.59217349904762,Ca2Ti6N2O11
mp-743742,1.2239,-1.5848470351164698,3.4386095391944123,0.1904081486274487,-290.60500311,-5.698137315882352,Fe6H12Pb(SO7)4
mp-778584,0.20630000000000012,-1.5823370082997696,4.532816604312063,0.1147049326923062,-81.87497594,-6.298075072307693,LiMn2(CoO4)2
mp-29956,1.3129,-0.40710075053571415,6.4092868385885176,0.0,-55.01836071,-1.9649414539285717,Hg3(SI)2
mp-8351,4.4830000000000005,-3.14884549,2.3127517784361062,0.012029144464285936,-198.02307918,-7.072252827857143,NaAlSiO4
mp-558050,1.5417999999999998,-3.008342975775517,3.7489755177771715,0.0,-49.36087803,-4.936087803,Rb2NaMnF6
mp-581165,2.9129,-1.4931895800480592,3.1697091132467716,0.002012852642859997,-401.64689649,-2.8689064035,Cs2Xe(BrF7)4
mp-677014,2.5603,-3.108884767063909,3.5373557806105658,0.008686518355272455,-563.75971727,-7.417891016710527,K2ErTi(PO4)3
mp-764526,,,,,,,
mp-765925,,,,,,,
mp-8136,1.114,-3.4893622647916662,8.652385393007037,0.0,-51.20120076,-8.53353346,ThSO
mp-770496,0.4670999999999999,-2.3226647906051823,4.041189332492055,0.04411920666667246,-166.45599312,-6.93566638,Mg2Mn3O7
mp-763287,,,,,,,
mp-762293,1.2576,-2.154472408809524,2.883598908117229,0.28254436571428965,-89.26120008,-6.375800005714285,LiCoSiO4
mp-776532,3.9025,-4.005173270833333,9.180523882829133,0.024836214166665368,-60.92807104,-10.154678506666666,HfO2
mp-17401,0.6762000000000001,-0.3378152271874999,4.731864060646428,0.0,-49.77437099,-3.110898186875,Rb3Sn4Au
mp-22212,1.2740000000000005,-1.98000140375,5.4160174291643335,0.09187406700000088,-112.31290406,-5.615645203,NaSbO3
mp-763572,,,,,,,
mp-8624,1.4051000000000005,-1.759899327107142,3.913061218569103,0.0,-70.5233591,-5.0373827928571435,K2Sn2O3
mp-558775,5.0115,-3.227687696578148,6.398168798622343,0.009109770648151994,-287.87539118,-5.331025762592593,Al3Pb5F19
mp-541122,,,,,,,
mp-36738,0.28600000000000003,-0.9941795630952379,5.024293550462024,0.7710845036904894,-243.89298415,-5.806975813095237,Fe2CoO4
mp-27628,1.3331999999999995,-0.5295081833040001,4.363337385520402,0.01276136237500003,-58.34058264,-2.9170291319999997,Te3Cl2
mp-25633,,,,,,,
mp-695799,5.332999999999999,-2.1893695570389284,2.0988772789363512,0.04809636156250008,-190.00310585,-5.9375970578125,KP(HO2)2
mp-765708,,,,,,,
mp-23888,4.4291,-1.5578723273053623,2.3956707158460047,0.0088304494927538,-117.65908953,-5.11561258826087,MgTe(H4O3)3
mp-567542,2.3844000000000003,-0.6684350491666665,5.115016036235046,0.0,-35.06365131,-2.9219709425,PbI2
mp-772265,0.8627,-2.4241696661144325,2.883553778262665,0.030620721250000926,-177.68728821,-7.40363700875,MnPO4
mp-777514,2.8014,-3.890029664583333,5.312041866806668,0.0902263172499982,-180.47717617,-9.0238588085,Y2O3
mp-705482,,,,,,,
mp-29368,3.4214999999999995,-3.791901046442306,9.401686018671247,0.033535537115385594,-504.19589553,-9.696074914038462,Th2Ta2O9
mp-853158,,,,,,,
mp-566895,,,,,,,
mp-25794,,,,,,,
mp-757688,0.3304,-2.8728908244565217,6.046941062867478,0.0,-832.9808667000001,-9.054139855434784,BaNb8O14
mp-772367,,,,,,,
mp-557686,2.4098,-3.6984996183925007,2.9760449056046188,0.0,-54.05935455,-6.75741931875,ZrVF6
mp-763385,,,,,,,
mp-28892,4.5996,-0.5988023378364282,1.6754796206146858,0.0,-564.24081327,-5.8775084715625,PH4N3
mp-7792,1.7757,-2.382787508541667,3.558893886632834,0.00890340324999972,-140.52580362,-7.026290181,YScS3
mp-557133,4.113,-3.0413384496002074,4.09786562672776,0.0,-49.15252413,-4.915252413,Cs2KMoF6
mp-562575,,,,,,,
mp-780215,,,,,,,
mp-27594,1.5638999999999998,-0.7422756406026788,5.891340288065993,0.0014699451785711304,-124.92590413,-4.461639433214286,As4(Pb3S5)3
mp-7337,5.3173,-3.2435490084166667,4.04498515157448,0.009341967843720765,-158.54139906,-7.927069952999999,NdAl3(BO3)4
mp-771491,,,,,,,
mp-756544,3.5436000000000005,-3.1887164297916666,4.730630887940045,0.013358127031250609,-112.36450646,-7.02278165375,LiLaO2
mp-998713,1.6092000000000002,-1.3660729919560002,4.011110523972259,0.004533889500001109,-31.41050908,-3.141050908,TlInCl3
mp-559738,1.7869,-0.8686802449131252,2.304594308092548,0.09514836363999946,-230.18526786,-3.5966448103125,SbSNCl5
mp-28603,2.4375,-1.1702436521701387,3.0149991519631407,0.0,-40.91115317,-3.4092627641666664,NaLiSe
mp-767492,,,,,,,
mp-17960,3.1428000000000003,-3.584038165952381,7.0093804603676535,0.0,-213.70105928,-7.632180688571429,BaSm2O4
mp-753425,1.7254000000000005,-1.6886165892361107,2.9709804609317296,0.04689731500000072,-76.20719057,-6.3505992141666665,LiCuCO3
mp-584134,3.6646,-2.5224981365963206,4.817025213299456,0.03790637577272982,-148.17809748,-6.735368067272727,LiBiP2O7
mp-21577,0.6425000000000001,-0.3819260593154764,3.013489508966253,0.0,-158.45184659,-3.3010801372916667,Na3InP2
mp-763180,,,,,,,
mp-768503,5.741700000000002,-3.0439707391895596,3.699267786351772,0.008275214519237295,-394.17366773,-7.580262840961537,Lu(PO3)3
mp-673024,3.7885,-2.3405432878690475,3.7182849452248217,0.029803452749991518,-263.75362348,-6.593840587000001,LiSn4(PO4)3
mp-29362,1.8172,-1.3019920496733337,2.8687834589492143,0.0,-39.90930559,-3.3257754658333334,GaCuCl4
mp-29594,1.3068,-1.5713224398474075,5.983024095359182,0.011390611828701935,-605.01460679,-8.402980649861114,La5B4N9
mp-766149,,,,,,,
mp-26897,3.1197000000000004,-2.507129636330782,3.1643473621149685,0.04380490405357662,-190.90375909,-6.817991396071428,LiSn(PO3)3
mp-10086,1.3132,-3.3597310042161106,4.685386927859507,0.0,-42.87761534,-7.1462692233333325,YSF
mp-566404,,,,,,,
mp-961685,1.5833,-0.8624927766666666,2.709004445253356,0.0,-10.55767213,-3.5192240433333333,NaCaAs
mp-27792,4.5508,-2.0249413774619573,2.0983796948769577,0.0,-536.36018564,-5.830002017826088,K2S5O16
mp-3050,4.4951,-3.6910040265,4.420389694453035,0.0,-651.5766771000001,-8.14470846375,Y3Al5O12
mp-25600,,,,,,,
mp-4117,5.1563,-3.024831226064816,2.3619402242945893,0.0,-126.23287079,-7.012937266111113,Li2Si2O5
mp-11183,5.3977,-3.16899919175,4.2298385556424245,0.0,-163.9661116,-8.19830558,Pr(BO2)3
mp-2542,7.459799999999999,-3.110502470625,2.967498715746272,0.0,-28.41216655,-7.1030416375,BeO
mp-540967,,,,,,,
mp-771758,,,,,,,
mp-19344,2.4279,-1.99281776,5.016092918401601,0.00455459285714177,-99.65660587,-7.118328990714287,Cr2NiO4
mp-776939,,,,,,,
mp-694964,1.7946,-2.7807669205783387,2.4108688574903283,0.0,-366.4960043,-6.786963042592593,Na4MnAl3Si3O16
mp-505139,2.5149000000000004,-2.2666697327864997,2.6102941461766638,0.004276964249999793,-263.95282468,-6.598820617,TiH2SO6
mp-37727,1.7211000000000003,-3.670177000319768,7.326523816231022,0.21227563424418786,-365.49514371,-8.499887063023255,Er10Ti6O27
mp-768604,3.4174,-2.8019614907809527,3.2314523135929685,0.06320686964286004,-130.03389471,-4.644067668214285,SrLaCl5
mp-571341,1.3829,-0.7333671384899999,6.436632190360174,0.0,-180.74022168,-2.5102808566666663,InHg6As4Cl7
mp-766463,4.3701,-2.6519509161519608,2.887283223427971,0.0,-233.95295259,-6.880969193823528,Na3GaB4O9
mp-850113,,,,,,,
mp-756365,2.3114,-3.63081560175,5.028686454934705,0.05865270100000153,-155.29450522,-7.764725261000001,CaCeO3
mp-754897,0.2921999999999998,-1.6778800635714286,8.955865038489009,0.0,-141.48039596,-5.052871284285715,BaTl2O4
mp-25750,,,,,,,
mp-780549,,,,,,,
mp-7580,1.8388,-1.0802855905185715,7.887312256241796,0.0,-36.51993239,-2.6085665992857145,Hg3(SF)2
mp-569203,2.3521,-0.5596172164285714,5.671981372603568,0.00848621464285726,-145.63405654,-2.6006081525,Tl3Bi2I9
mp-762809,,,,,,,
mp-770368,0.7075999999999998,-2.458566858564814,3.4236120870906603,0.17431991861110685,-255.99495299,-7.110970916388888,Li3V3(BO5)2
mp-675681,6.491199999999999,-4.360542837509583,6.214009635294699,0.00027559999999748896,-300.36107619,-6.257522420625,Ba4Er3F17
mp-566418,,,,,,,
mp-1014244,1.9927,-1.0562403724399996,6.050268483468617,0.0,-29.937067100000004,-7.484266775,ZrZnN2
mp-763891,,,,,,,
mp-556400,2.0249,-1.7960037453112063,4.304576964437723,0.0,-185.37307346,-4.6343268365,Cs2K2TeO5
mp-765438,,,,,,,
mp-625238,2.6529,-1.7586201213820003,4.459147566005787,0.026179666638908472,-204.87658411,-6.8292194703333315,Re2H4O9
mp-762899,,,,,,,
mp-6569,2.4973,-1.2109038182325,2.8270089139471586,0.06449193082150728,-457.27033328,-5.715879166000001,K3HgN5O11
mp-19302,3.6886,-2.7806148407142857,2.9148137361460518,0.0,-94.31801534,-6.7370010957142865,NaCaVO4
mp-5996,3.2639,-3.1743227565833325,3.313306847993076,0.0,-460.34865427,-7.6724775711666675,Na2Ti2Si2O9
mp-4252,1.7622,-0.7431731985892853,3.3710347058915744,0.007006794500000524,-94.16166574,-4.708083287,SnPS3
mp-7910,1.1070000000000002,-0.3813967857142856,5.371464268621825,0.0,-23.037761899999996,-3.2911088428571427,Al2HgTe4
mp-626843,1.87,-1.083313429948,2.3391303204357654,0.16486594400000154,-24.00319321,-4.800638642,Ni(HO)2
mp-1019510,5.4784000000000015,-3.1205254006994045,1.7623501510469348,0.01046234489583231,-717.83481553,-7.4774459951041665,AlPO4
mp-8622,0.9935999999999998,-0.8846938459375,5.684812626195736,0.0,-19.44726804,-3.889453608,Rb2PtSe2
mp-849288,,,,,,,
mp-778756,2.2238,-2.476053634791666,3.176640576454823,0.09624018802083788,-174.32795152,-7.263664646666666,LiVBO3
mp-699377,,,,,,,
mp-779846,2.6798,-3.506557277211537,9.11005435084708,0.02927640942308507,-495.80789813,-9.53476727173077,HoTa3O9
mp-770110,,,,,,,
mp-558585,2.394,-1.48504815548127,7.9021047910308,0.024956027037031703,-151.70447669,-4.214013241388889,Hg3PClO4
mp-768139,1.4103,-0.8084544674053032,2.5117567991639542,0.07963400590909098,-71.79074201,-3.263215545909091,Li8Sb2S
mp-771255,2.5666,-2.215710710191571,4.770549885776316,0.0,-183.71623364,-5.103228712222221,Cs4SiO4
mp-34898,2.0389,-3.130158808955456,5.782233065583831,0.03388422272727176,-423.02328455,-9.614165557954548,Zr4N2O5
mp-25753,,,,,,,
mp-764489,,,,,,,
mp-765028,,,,,,,
mp-1016197,1.3031999999999997,-0.3119818558333334,3.482769279646144,0.0,-35.17046023,-4.39630752875,MgSiAs2
mp-714911,0.9967,-2.5230812914062497,4.442145926852472,0.002655356875010284,-127.22809237,-7.951755773125,V3O5
mp-675103,1.0428000000000002,-2.470842258618421,5.326354253737037,0.08148906157894675,-223.1160867,-5.871475965789473,Sr6Bi2O11
mp-633474,,,,,,,
mp-677217,1.1301000000000003,-1.1301017638541664,4.965372084907373,0.04577608187500015,-114.13314983,-7.133321864375,MgMo3S4
mp-764328,0.5520999999999998,-1.6346105264037922,3.837407922754687,0.29245267937500063,-172.6268515,-6.16524469642857,Na5Mn7O16
mp-754153,4.3086,-1.462080107531334,2.5969997559366877,0.0,-86.32555489,-4.316277744500002,LiH2BrO
mp-32472,,,,,,,
mp-10935,5.494199999999998,-3.3779048387201778,5.198101612600818,0.0037985387500034658,-113.43876877,-7.089923048125,NaErPO4F
mp-766144,,,,,,,
mp-1747,2.1383,-1.0240180286666671,2.4502673091832907,0.0,-8.43615291,-2.81205097,K2Te
mp-780126,0.9105,-2.690547654822961,2.89015177124606,0.08364245992164497,-532.5071039,-6.827014152564103,Li3MnSi2O7
mp-1009792,0.6801999999999992,0.4535905099999997,7.889818655521637,0.4535905099999997,-17.59397791,-8.796988955,RuC
mp-856,0.6475,-2.1233900658333336,6.60886540016451,0.0,-37.70759223,-6.2845987050000005,SnO2
mp-551900,1.2288000000000006,-2.28712109375,7.730757236659298,0.0,-49.47028907,-6.18378613375,PrBi2BrO4
mp-773357,,,,,,,
mp-764738,1.7156,-2.333399119285713,3.163198356700334,0.0706324535515872,-303.04208142,-7.215287652857143,LiFe4(BO3)4
mp-766861,,,,,,,
mp-699660,1.1534999999999995,-2.458344119291666,5.402557033298964,0.02791522098957166,-341.12774056,-7.106827928333334,KHo2Cu(MoO4)4
mp-758272,2.2769999999999997,-3.144759925319092,5.773515498765238,0.01928310636363584,-423.66573367,-9.62876667431818,Zr4N2O5
mp-32056,,,,,,,
mp-764756,,,,,,,
mp-41701,2.7564,-2.174277595388016,2.880775800388286,0.09606598816666878,-310.74378145,-6.473828780208333,LiCo2P4H3O14
mp-18950,1.7786000000000002,-1.4328312674999992,4.245487523520094,0.8517069702678448,-80.88858322,-5.7777559442857145,BaCa(FeO2)4
mp-12645,4.0263,-3.3108265435416664,6.480360352490058,0.0,-112.90387534,-7.05649220875,LiHoO2
mp-769432,,,,,,,
mp-505138,1.0629,-0.4013352016874997,3.79978783151,0.0,-190.29502893,-3.659519787115385,K2PdSe10
mp-763769,,,,,,,
mp-849327,1.1791999999999998,-2.398506313853175,3.046502954090395,0.08738080768332512,-393.38197555,-6.5563662591666665,Li2Cu(PO3)3
mp-773396,,,,,,,
mp-774418,0.8519,-2.667524271512604,2.7923225458138807,0.015044212132341528,-255.167633,-7.504930382352941,TiV3(PO4)6
mp-30279,0.21140000000000025,-2.126885290714285,6.1668110544288535,0.0,-202.3532525,-7.226901875,NpIO5
mp-31360,1.4545,-1.8674412396671431,4.0853847608639775,0.0,-150.44593176,-5.373068991428572,K2Ta3Cl9
mp-559354,1.8833,-2.82072901775,4.178075853916488,0.03598529399999961,-153.01667816,-7.650833907999999,NaNbO3
mp-27267,0.7567000000000004,-0.32134010985714384,6.464653287363057,0.0,-285.63496944,-7.140874236,ReP4
mp-5450,5.5324,-3.6811580725711113,3.4121701664238833,0.0,-104.84444396,-5.824691331111112,K2ZrF6
mp-773347,,,,,,,
mp-17649,1.8252,-2.5016287442588894,5.6855278375843445,0.0,-155.24983014,-4.312495281666667,TlSnF7
mp-763474,,,,,,,
mp-557613,,,,,,,
mp-769296,2.0934,-1.2039369384775551,2.276728512133312,0.07866496266666713,-285.11016172,-4.751836028666666,AgH9O5
mp-770986,,,,,,,
mp-17564,0.2502000000000004,-0.9897795818749996,3.7267660883130342,0.0,-121.21019634,-3.787818635625,Ca5Sb3
mp-761470,,,,,,,
mp-768029,,,,,,,
mp-5942,1.3699000000000003,-0.9321108140624998,2.7240503330894863,0.0,-66.58061622,-4.16128851375,NaAsS2
mp-14716,1.7724,-2.2570580529460718,5.902270556124399,0.0,-475.73948965,-4.2476740147321435,Nd2Au5F21
mp-557606,1.8717,-1.4672372804653573,3.719688187329607,0.06312215072544625,-122.30558481,-4.368056600357144,SbAs3(Se2F3)2
mp-25103,,,,,,,
mp-505026,,,,,,,
mp-561254,3.6606,-2.243834259027778,2.9460773218674734,0.0,-390.66938721,-5.4259637112500005,NaLi3GeO4
mp-769791,,,,,,,
mp-8975,0.9885,-1.252784174230769,7.099289906124064,0.0,-241.91768478,-4.6522631688461535,Hg3(AsO4)2
mp-18612,1.575,-1.3335816553571431,2.896945436386124,0.0,-144.13493736,-5.147676334285714,Rb2MoS4
mp-29096,1.4861,-0.5084056494642856,6.4563442222658045,0.0,-58.75823768,-2.0985084885714285,Hg3(SBr)2
mp-11601,4.0684000000000005,-3.199771751875,6.66117394720648,0.0006934843750006081,-27.17006575,-6.7925164375,NaErO2
mp-715574,0.7662,-1.9589037184375009,3.279968076406325,0.05925822937499881,-111.54898568,-6.971811605,MoO3
mp-765326,,,,,,,
mp-776051,0.8073000000000001,-2.2528795190138986,3.2624476018486943,0.3254646855000045,-273.52257795,-6.838064448750001,Li2Mn2Fe(PO4)3
mp-762358,4.455100000000002,-1.9304274352637496,2.677847649614655,0.0,-553.27144345,-5.7632442026041675,LaH9(SO6)2
mp-540883,2.6133,-0.6106670735470785,2.2606667775373595,0.0,-204.68741888,-4.651986792727271,As2P2S7
mp-782687,,,,,,,
mp-559332,2.3396000000000003,-1.3527954231249997,6.311033471273475,0.007106249375000041,-117.62998128,-4.90124922,BiTeIO3
mp-17307,1.0497,-0.5058110409833333,5.0863417533746365,0.0,-95.8423313,-3.1947443766666668,K2Hg3(GeSe4)2
mp-767663,,,,,,,
mp-617871,,,,,,,
mp-553991,2.3472,-2.5602758746153835,5.011361166716162,0.002615718653853349,-87.25632264,-6.712024818461537,Ti(GaO2)4
mp-19341,3.3293,-1.6978168399999995,7.173078099888153,0.0,-84.39562413,-6.028258866428572,Tl2WO4
mp-770472,4.5874,-4.00564146625,9.564684126270878,0.08240178562499878,-167.47425251,-8.373712625500001,HoLuO3
mp-29526,2.1636,-0.6216693387260002,2.58791567746261,0.0,-101.73896731,-5.0869483655000005,BrNO3
mp-674341,2.6912,-3.6219710812500012,5.658501459430576,0.18440292113636406,-200.83304954,-9.12877497909091,Sc3TaO7
mp-510633,2.7849000000000004,-1.4835107607812503,6.3457640347571695,0.000679845937498591,-178.12353797,-5.5663605615625,Pb2CBr2O3
mp-14901,2.7708,-1.9464013458333331,3.70012268660782,0.0,-454.05195559,-5.4053804236904766,NaZnAsO4
mp-762199,,,,,,,
mp-1340,1.0376,-0.5844170924062503,4.767617677295064,0.0,-38.93199947,-3.893199947,Ga2Se3
mp-763695,,,,,,,
mp-770971,,,,,,,
mp-18979,2.3323,-2.660780546416667,4.556077281504146,0.013228374874989512,-458.17324902,-7.636220817000001,TbFe3(BO3)4
mp-780554,,,,,,,
mp-761481,2.3744,-2.4613004056283083,3.229433001060797,0.06696779538065556,-233.38983841,-6.4830510669444426,Li2FePO5
mp-9323,0.5791000000000004,-2.472173057375,6.276520355867312,0.0,-128.19426835,-6.409713417499999,Tb2S3
mp-771666,,,,,,,
mp-686836,2.3790000000000004,-2.5227078734166666,7.729336332297387,0.02477254059374978,-291.89412026,-7.297353006500001,MgTiNb2(PbO3)4
mp-560356,2.512,-1.8055763992857143,4.469187267553379,0.0,-159.17165266,-5.684701880714287,Sm3Si2S8I
mp-2309,1.1833000000000005,-2.4488029002083334,6.447614298278432,0.025698622750001118,-126.45240358,-6.3226201789999985,Tm2S3
mp-781505,3.716,-3.0833732422500004,4.603333803244358,0.0,-141.82647982,-7.091323991,Ca3WO6
mp-555805,2.4648000000000003,-1.3473785656605557,1.8186113865399287,0.0,-56.24385925,-3.1246588472222223,AlSCl7
mp-765182,,,,,,,
mp-25557,,,,,,,
mp-555785,2.7435,-3.7006275244318183,5.8765461264325465,0.04015839318181946,-191.50590630000002,-8.704813922727272,Nd2Ti2O7
mp-755950,2.7291,-3.5159349290277784,5.10584882979868,0.0,-138.74924315,-7.708291286111113,Ba2Sc2O5
mp-764373,,,,,,,
mp-778597,,,,,,,
mp-690125,,,,,,,
mp-565329,,,,,,,
mp-571404,1.1259,-0.25937426995535723,6.684186712395233,0.004699826428571585,-51.06539214,-1.823764005,Hg3(SeI)2
mp-766416,1.7242,-2.0405769192838004,2.931281589166736,0.03110785741376265,-322.17046291,-6.443409258200001,K2UH6C2SO13
mp-565403,,,,,,,