id,band_gap,formation_energy_per_atom,density,e_above_hull,energy,energy_per_atom,pretty_formula
mp-10097,0.4419,-0.8262059909090909,3.765986133789632,0.0,-79.51100167,-3.6141364395454554,Na3Sr3GaAs4
mp-21835,0.7882999999999996,-0.35419389173029564,4.927050673743358,0.0,-177.28422561,-3.165789743035714,Cs2In2Sb3
mp-17927,0.7873000000000001,-1.5410177339285716,6.382715353210843,0.0,-137.97148947,-4.927553195357143,Ba(DyTe2)2
mp-28344,0.7963999999999998,-0.995591542380952,4.8682557420549335,0.0,-205.51304580000001,-4.893167757142857,Zr6CI14
mp-757777,2.9748,-2.1375259387847225,7.708815936209826,0.04157115534722245,-148.72306439,-6.196794349583333,LiSiBi3O7
mp-775660,,,,,,,
mp-569868,,,,,,,
mp-771302,,,,,,,
mp-555641,1.181,-1.38506701905,3.366727853099815,0.007753264620097511,-73.10612836,-4.300360491764706,Nb2Te4Cl10O
mp-782679,,,,,,,
mp-555527,2.6145,-1.847483731785715,4.316312867089446,0.0,-160.57089292,-5.734674747142857,Sm3Si2S8Br
mp-39536,5.9997,-2.2077999968170587,1.8620850250843812,0.17593310617647084,-98.92887567,-5.819345627647059,CaC2S2(OF)6
mp-31768,,,,,,,
mp-23446,2.3283,-1.8758818639062491,7.7742133064136825,0.005664030833335332,-97.25145329,-6.078215830625,GeBi2O5
mp-24898,,,,,,,
mp-764256,,,,,,,
mp-696195,2.1589,-3.0133609447890284,4.705602231575195,0.01719702083333363,-163.38095282,-6.807539700833334,YSeF
mp-763183,,,,,,,
mp-753656,2.9655,-2.117964375813333,5.378809420030493,0.09806613895833394,-64.59643326,-5.383036105,SbOF
mp-619092,0.5402,-1.7895546558166662,3.4721667718723355,0.14489089533333033,-352.2588686,-5.870981143333334,K2Fe2As2O9
mp-4888,3.0812,-2.918193489974491,3.7881157562094048,0.022599067142857976,-114.34054535,-8.167181810714286,NbPO5
mp-771093,1.4167000000000003,-2.241910604523809,4.386725016145493,0.009353773333332429,-306.86494510000006,-7.306308216666666,Li3Cr10Fe5O24
mp-554716,3.1012,-2.3364899795087504,3.4227959223807973,0.030727408242188226,-184.45157434,-5.764111698125,NaSbCO2F3
mp-779194,,,,,,,
mp-27411,1.1945000000000006,-0.02464877464285742,4.063980227956126,0.0,-118.30389950000001,-4.929329145833333,TlP5
mp-28442,1.5638999999999998,-0.5399122757142852,3.7473968519345533,0.006431379107141311,-243.98753606,-4.356920286785714,TlAs5S8
mp-30141,1.3258,-0.982091091275238,1.925063354525561,0.05544820251984639,-263.03495094,-6.262736927142857,Be(N3O7)2
mp-560997,1.9296,-3.245822489001668,2.853830338316825,0.0,-269.34312469,-5.611315097708334,KVF4
mp-1315,2.7919,-1.7593102832291665,2.6187871094249178,0.0,-8.58850635,-4.294253175,MgS
mp-771936,2.5314,-1.5614807658333332,4.669009613845431,0.06430897307692529,-182.19939983,-3.5038346121153845,Sr3YI9
mp-36821,0.9940000000000002,-1.4295065477678577,6.59192134606983,0.09366110910714197,-68.86536189,-4.918954420714286,Nd2CdSe4
mp-776184,,,,,,,
mp-552588,2.3266,-2.875671162083333,4.4059332732597545,0.033023813999999874,-78.25116022,-7.825116022,LiNbO3
mp-557406,5.2573,-2.7966213745833333,2.1638229257656745,0.0003962673148283357,-812.97977574,-7.527590516111112,NaB3O5
mp-760046,3.06,-0.6523776805240333,1.2220302784848185,0.0,-325.94283395,-4.938527787121212,LiPH21S3N7
mp-29958,1.4983000000000002,-1.4100800460338343,8.330202160430597,0.0,-164.40030085,-4.326323706578949,Hg7(PO5)2
mp-778826,,,,,,,
mp-686697,1.9647,-3.469683130983333,5.065404645725838,0.0180892698666586,-404.80367267,-8.0960734534,Na3Sr4Nd3Ti10O30
mp-769757,,,,,,,
mp-767112,,,,,,,
mp-756818,3.2482,-2.491873064523809,5.189008763225097,0.06347073345238208,-273.86701929,-6.520643316428571,LiSiBiO4
mp-756597,4.699,-3.148600676180556,6.403028513460582,0.026946725833332685,-90.80726188,-7.567271823333333,Li2HfO3
mp-778914,,,,,,,
mp-19052,3.6312,-2.270198943,2.2898354327101966,0.021531057812500087,-45.87580643,-5.73447580375,K3VO4
mp-766911,,,,,,,
mp-625571,,,,,,,
mp-868650,,,,,,,
mp-773747,,,,,,,
mp-705415,,,,,,,
mp-714931,1.2506,-1.998394164999998,2.0308316445336807,0.4865689675000002,-87.54747841,-7.295623200833332,VO2
mp-774874,0.2182000000000004,-2.6571828272916664,4.0305033381053486,0.10672765861110813,-82.97626765,-6.914688970833333,Li3Ti2CuO6
mp-772840,3.673200000000001,-2.9900707273106075,5.961630087907982,0.020888132272727237,-325.12329798,-7.389165863181819,Sm2Ge2O7
mp-775626,,,,,,,
mp-26341,3.9591,-2.507132471141776,3.1022154420352717,0.01924844168181039,-148.32521925,-6.7420554204545455,LiSbP2O7
mp-557112,3.4396999999999998,-2.67497956115942,3.1829226170778844,0.0,-293.97331547,-6.3907242493478265,Li4Ga3Si3IO12
mp-752910,0.6006,-1.7017603324999997,5.2380930804408585,0.03739082625000023,-38.41982993,-4.80247874125,Na3BiO4
mp-561829,,,,,,,
mp-18361,1.1294,-0.4635331521666662,2.7369654195170825,0.0,-84.14105547,-3.50587731125,K7NbAs4
mp-675342,4.4465,-3.097733610505625,7.46223702952343,0.055232625937503776,-84.80829065,-5.300518165625,NdPb4F11
mp-779924,,,,,,,
mp-777424,,,,,,,
mp-9092,1.1633999999999998,-2.454183010375,6.306199509522883,0.008644040833333477,-127.29893701,-6.364946850499999,Er2S3
mp-27540,4.9973,-2.1164213113728567,2.3905731517829336,0.01700041285713994,-328.13385120000004,-5.8595330571428565,Al(HO)3
mp-766292,4.0304,-3.9844770446666673,5.290176756810141,0.000604261531250927,-361.01367191,-9.02534179775,DyY7O12
mp-763506,,,,,,,
mp-778375,1.6052999999999995,-2.8750960360009086,6.065743413468995,0.04695308326974512,-395.33580962,-8.98490476409091,La2Nb2N2O5
mp-22563,1.0491999999999997,-2.4660810783750007,6.484760341237473,0.0,-146.27544757,-7.3137723785,Gd(LuS2)3
mp-556544,5.021,-3.1971175234523814,2.4937349449876893,0.022371592261904102,-201.76149551,-7.205767696785713,LiAlSiO4
mp-756750,3.0482000000000005,-3.80517448140625,6.302673576301606,0.0922615162499998,-137.55669943,-8.597293714375,Dy2TiO5
mp-18910,1.0462000000000002,-2.568022696160713,4.4916335979130855,0.10314238714284762,-211.36740495,-7.5488358910714295,BaV4O9
mp-782712,,,,,,,
mp-771981,3.4682,-2.0369002236363642,3.7819624534809435,0.04079442477272721,-94.58459964,-4.299299983636363,BaLa2Br8
mp-684904,0.3823,-1.2133090074166664,1.7150055066767995,0.03964653166666698,-20.21278077,-3.368796795,K2O
mp-505346,0.3684000000000003,-3.1912908067424244,6.303551815440067,0.0,-209.62620679,-9.528463945,Eu3(BO3)2
mp-754759,4.4426,-3.928763665083333,5.0094626319248965,0.05149231674999832,-90.62592809,-9.062592809,Y2O3
mp-29543,3.1376,-1.6696719711644339,2.486761163950181,0.06571572921354285,-296.62009147,-6.179585238958333,P2SeO3
mp-775652,,,,,,,
mp-1138,8.7164,-3.1804090164283334,2.5304301553664272,0.0,-9.69029102,-4.84514551,LiF
mp-849953,0.4980000000000002,-2.1993745871556336,3.9225588271648615,0.03889058677975843,-393.66935522,-7.029809914642858,Li2Mn3VO8
mp-776323,0.7747999999999999,-2.2873219724166662,3.5611117142244204,0.06665241324999549,-141.12987343,-7.0564936715,Li2V5NiO12
mp-756930,2.8163000000000005,-3.019892339375,4.7649290450016295,0.05394785000000013,-97.95733544,-6.122333465,BaCaO2
mp-561260,4.9509,-2.9014442134077383,2.632902308618545,0.0,-159.97493862,-6.665622442499999,Na2CaP2O7
mp-775644,0.8447,-2.0452922795833337,4.038498236816468,0.07324786750000012,-339.23642514,-7.06742552375,V3CuO8
mp-566521,,,,,,,
mp-542833,2.6968,-2.2825817146969705,4.045358919632962,0.0190164964394004,-270.87821909,-6.156323161136363,Zn3(BO3)2
mp-4891,5.8318,-3.7647759472500004,7.686656907234689,0.01569188199999516,-159.55544337,-7.9777721685,HoAlO3
mp-559186,3.5551,-2.6203517701190475,6.182468277928209,0.0,-191.23960847,-6.829986016785715,BaBiBO4
mp-686702,2.4763,-3.1196637486708854,1.6571306133072647,0.11598090999999933,-578.4462294,-7.3221041696202525,Ca4Al11Si13(AgO16)3
mp-12927,1.1720000000000002,-1.1178649999519998,4.440144225822874,0.0,-61.78413187,-6.178413187,Ba(BeN)2
mp-7921,1.8374,-2.4553108188091666,3.9400713895068,0.0,-34.93917021,-4.36739627625,MgPdF6
mp-753623,0.5071000000000003,-0.6842071019675926,4.3442276897485215,0.07702801240740786,-73.58301181,-4.087945100555555,Li2Cu4S3
mp-998787,4.221,-2.217491670956,3.9321143359284574,0.0,-38.42025388,-3.842025388,CaTlCl3
mp-559213,1.4713000000000005,-1.9318524865756703,6.29501608942234,0.0,-191.06181314,-5.307272587222221,CsIn3O5
mp-294,1.8558000000000003,-3.5414568999999996,7.72233220598781,0.08219240343747991,-305.55387213,-9.5485585040625,UO3
mp-28087,2.9253,-2.417886018194167,7.585646851822604,0.029656239895833107,-110.66570084,-4.611070868333333,Pb4IF7
mp-13695,2.5506,-2.650659038958333,6.0738739665384776,0.01261943328124726,-27.91085624,-6.97771406,SmCuO2
mp-765122,,,,,,,
mp-1020122,5.5211000000000015,-2.292057701833333,2.3817750806497964,0.0,-122.3662219,-6.118311095,MgS2O7
mp-566233,,,,,,,
mp-17291,1.8812999999999995,-0.6784039721428569,3.5718171373365597,9.010241071383264e-05,-94.15516106,-3.3626843235714285,Na3SiTe3
mp-757282,2.448,-2.3323761365784828,3.9996659450568552,0.06697098546295344,-176.33726724,-6.5310098977777775,Li2Sn5(PO4)4
mp-985829,1.2374,-2.0193180454166666,5.3225468572962695,0.0,-22.96111864,-7.653706213333333,HfS2
mp-778700,3.6246,-2.090224366870476,2.997378355755721,0.9145883121428584,-238.9433108,-4.266844835714286,Li2FeF4
mp-754110,2.5214000000000003,-2.5502158147916667,6.633194321887656,0.0,-52.48481146,-6.5606014325,SmAgO2
mp-559349,0.3186,-1.9533257536745,3.1830261370065744,0.0,-290.91086998,-3.63638587475,Sb2ClF17
mp-778256,1.8555,-1.8727828974166667,3.3331405185097784,0.04272774324999862,-171.30567589,-4.28264189725,Rb2MgO2
mp-770988,0.8379,-2.1316719251934533,2.838139051148376,0.027332177458328392,-155.59708174,-6.483211739166666,Na2CoPCO7
mp-16577,7.0123000000000015,-3.9044924439877775,4.490268649408909,0.0,-73.99280361,-6.1660669675,Li2CaHfF8
mp-752446,2.9667000000000003,-1.4863978727259997,2.414395931772204,0.003988018666666093,-29.10199203,-5.820398406000002,RbNO3
mp-18873,1.8135000000000003,-1.8285438038268964,3.531644961671466,0.0,-84.73031955,-5.295644971875,Rb2NaMnO4
mp-763872,,,,,,,
mp-773240,,,,,,,
mp-744205,2.6728,-1.8146809612783328,2.650824559927494,0.0,-290.67206287,-6.0556679764583325,K2Cr2AsHO10
mp-778060,,,,,,,
mp-675977,0.3036000000000003,-0.5292606961458333,6.932464113724071,0.04553854458333362,-31.56393591,-3.94549198875,AgBiS2
mp-33746,4.275,-2.673382786083333,3.4810205481027587,0.03618874549999607,-74.04032282,-7.404032282,SrCO3
mp-769751,,,,,,,
mp-569237,1.4227,-0.9155523183007408,5.335332035649123,0.0,-381.94956254,-3.5365700235185185,Ga(BiCl)4
mp-566179,,,,,,,
mp-763460,,,,,,,
mp-764576,,,,,,,
mp-541818,2.1943,-0.5815332548224436,3.310668037148707,0.0,-216.58717394,-4.922435771363637,Rb4(BSe)9
mp-19169,3.0302,-3.1735091958333337,4.639197118136115,0.0,-96.40994473,-8.034162060833333,PrVO4
mp-771479,,,,,,,
mp-776740,1.1271000000000002,-2.14765669264485,5.792247463264736,0.050014575685152884,-133.71277647,-6.685638823500001,Li2MnWO6
mp-19348,2.855700000000001,-2.9951155984803925,3.9667431790411465,0.07366693979871107,-253.89804452,-7.467589544705883,Al4Co(BO5)2
mp-770574,2.117,-1.3390746493939394,4.513182605242325,0.06711156909090832,-76.78160758,-3.490073071818182,La2MgI8
mp-779988,,,,,,,
mp-17164,3.0775,-2.5925157117187503,4.110857143211281,0.0,-231.99797085,-7.2499365890625,NaNbGeO5
mp-6268,3.0454,-3.06147533238393,2.91388277057321,0.0,-481.11094121,-7.51735845640625,KTiPO5
mp-24638,4.9863,-1.963554787974672,2.186657232338766,0.017855077702673583,-208.03522071,-5.622573532702702,Mg3P2(HO)16
mp-752503,1.9390000000000005,-3.8143283443750007,5.675919727281551,0.02377867739584083,-225.24152133,-9.38506338875,CeZr7O16
mp-770033,,,,,,,
mp-754370,2.7573000000000003,-2.8557619429166667,5.798454734861004,0.0,-114.6092179,-6.367178772222222,Ba3GeO5
mp-4122,4.4397,-2.591938700595238,3.3569084959871804,0.01051970166668692,-122.92700958,-6.82927831,GaPO4
mp-764546,,,,,,,
mp-773708,,,,,,,
mp-777898,3.5555,-2.8367972996127784,2.5625840494067518,0.0837914460416691,-242.78563381,-5.0580340377083335,LiFeF4
mp-754250,4.0962,-3.24896778625,7.29163847331786,0.006897613125000035,-109.28150243,-6.830093901875,NaLuO2
mp-25672,,,,,,,
mp-540719,,,,,,,
mp-989532,3.6809,-2.779016999214,4.643472498564694,0.0,-43.38787559,-4.338787559,Rb2TlInF6
mp-556212,1.7559999999999998,-3.0424774299453126,5.655895336314133,0.0,-253.7035003,-7.928234384375,K4U5Te2O21
mp-767146,2.6264000000000003,-3.2416609430833323,3.681539823607889,0.025105277325007336,-407.65741031,-8.153148206200001,Li7Ti12NbO30
mp-19360,0.2352000000000003,-2.798222592499999,6.22273272553791,0.0,-91.86599084,-7.655499236666666,LuCrO4
mp-1006118,1.8951,-0.6338722226686515,1.9411829519671655,0.0028781233333416982,-81.68470159,-4.538038977222223,P2S7
mp-561351,5.4512,-3.2659446940277768,1.7990143065243225,0.012052975138887591,-569.10133619,-7.904185224861112,SiO2
mp-561597,,,,,,,
mp-18297,1.4942000000000002,-0.66390084328,5.91318136440979,0.002693572222222329,-198.39235468,-5.510898741111111,Ba3(GaN2)2
mp-753712,3.4117,-2.9416417765277787,5.137030182037476,0.0,-42.12134904,-7.02022484,YIO
mp-770943,2.3246,-2.35576295645238,3.4644534642798823,0.07773145431249784,-262.21605793,-6.5554014482500005,Li4TiNi5(PO4)6
mp-762566,,,,,,,
mp-763716,,,,,,,
mp-770559,3.6282,-3.3145337472222227,8.681748560978903,0.0,-292.50198675,-8.125055187500001,Dy2WO6
mp-570377,0.3924000000000003,-0.040959305714285466,5.408431032095247,0.0345047342857141,-30.89763232,-4.413947474285714,Sn3As4
mp-772993,2.2459,-3.1608389086851845,4.086280761473248,0.07319142327776795,-389.29876078,-8.65108357288889,Li2Ti7Nb6O30
mp-779885,0.28569999999999984,-2.384432875260647,2.8797856775197106,0.293808796318193,-304.49808292,-6.920410975454545,Li2MnV(P2O7)2
mp-570256,1.0991999999999995,-0.29789795095238103,5.47423399957824,0.001603861428572273,-14.15000905,-2.021429864285714,Ag2HgI4
mp-556420,,,,,,,
mp-764771,0.6793,-2.4633311428260862,3.735224688661837,0.04651137097825053,-156.05991988,-6.785213907826088,Li6V5O12
mp-768754,0.6097000000000001,-1.9544710124189817,4.214056234604212,0.09646661291088243,-424.91675625,-5.901621614583332,LiBi2(SO4)3
mp-762915,,,,,,,
mp-556641,5.1392000000000015,-2.597954182341148,2.6863668144934545,0.0004445493627480701,-863.68960046,-6.350658826911764,Na2LiAlP2H2O9
mp-676206,1.6335000000000002,-0.4929566318333333,4.8516002509667,0.034263198000000106,-99.44104777,-2.48602619425,RbAg4I5
mp-763846,,,,,,,
mp-775433,0.5326,-0.8896360681114728,2.487801364705762,0.06051554672121196,-51.04817518,-4.640743198181818,Li2Ni(PS3)2
mp-510065,1.3561000000000003,-1.231351571660381,5.7626953803479655,0.0,-47.68603693,-3.9738364108333335,CsNdHgSe3
mp-29420,1.3131,-1.2626986383122734,3.4238887099962727,0.0,-181.41448625,-4.123056505681818,Hf(Se2Cl3)2
mp-754672,2.9821,-3.4799013224999995,2.9559965381237,0.032063412499999444,-107.30435098,-8.942029248333332,TiO2
mp-770900,1.0822,-1.7240853440331982,2.8514518118364163,0.12357598206564367,-142.72590854,-6.487541297272728,NaMnAsCO7
mp-7469,1.2742000000000002,-1.2409053037499995,3.66404506543264,0.0,-53.51924422,-4.459937018333333,NaCuO
mp-530714,0.5247999999999999,-1.0298237204807694,5.182237645273569,0.0,-411.22231847,-3.9540607545192312,Ba14AlSb11
mp-25131,,,,,,,
mp-773465,,,,,,,
mp-693857,2.9611,-3.0911378153968254,1.4773905652626549,0.10881313990079013,-593.99539166,-7.0713737102380945,NaLi2Al3(SiO4)3
mp-542063,3.9628,-1.8008178463319044,2.953724478988208,0.0,-235.68451978,-5.611536185238094,Rb4H6C2O9
mp-774241,2.0029,-2.0141337948863627,2.67600100496002,0.050200300227291265,-148.94597416,-6.770271552727272,NaVAsCO7
mp-3612,2.3619,-2.53304388125,5.3387418020397694,0.00028633166666480747,-185.64491915,-7.735204964583333,NbSbO4
mp-13925,6.865399999999998,-3.60198214713354,4.192216710659252,0.0,-54.11222468,-5.411222467999999,Cs2NaYF6
mp-25190,,,,,,,
mp-770084,,,,,,,
mp-974667,3.4137000000000004,-1.763384170317272,2.774507584523477,0.044092194431821774,-135.03926865,-6.138148575,Rb2H2C2O5
mp-723419,1.9716,-1.523828157231969,2.3065139631028453,0.0,-566.31094974,-4.290234467727273,Sb2S19F12
mp-721686,3.8131,-1.3852385548333337,2.7334266704874395,0.005602502777777296,-161.66968604,-4.490824612222221,SnH4(ClO)2
mp-706544,2.7434,-0.5511391813199994,1.612486088081782,0.005970574107144522,-279.13617402,-4.9845745360714275,NaGa(H2N)4
mp-765615,0.5726,-2.0383512587499992,4.164584529386995,0.02688244510416116,-144.13243774,-6.005518239166666,Li6Fe5SbO12
mp-779840,,,,,,,
mp-572441,1.7916,-1.2215042953544062,5.656862813468339,0.0,-261.36534439,-3.630074227638889,Cs3AuO2
mp-32499,,,,,,,
mp-3922,1.3671000000000002,-0.5219681173958337,4.924522755721526,0.0,-63.98152338,-3.99884521125,AgSbS2
mp-778194,2.4184,-0.7982907532019994,4.6020067369507265,0.03481978399999885,-66.75417374,-6.675417373999999,Ge2N2O
mp-765002,,,,,,,
mp-29506,2.3292,-1.6860131926077582,5.956370514644319,0.0,-40.03440492,-5.004300615,CsBiO2
mp-752555,3.4349,-3.599072783095238,5.878003608080395,0.0560695337499979,-214.95066728,-7.676809545714287,SrLa2O4
mp-28680,3.5772000000000004,-1.2174711038333332,3.074475102373765,0.0,-107.94612990000002,-2.9985036083333334,KGaBr4
mp-853247,,,,,,,
mp-778617,0.5875999999999999,-1.038195393577778,4.632058303007751,0.9218862102314844,-63.07928016,-3.5044044533333336,Ni3OF5
mp-28478,0.5246,-0.3892353266666671,5.0437438464418705,0.0,-147.58880522,-3.0747667754166668,NaTe3
mp-558241,2.0351,-0.9525655716666676,6.173935477321002,0.0,-163.70438487,-5.1157620271875,TaTl2AgS4
mp-540997,1.2702,-1.1415462280911113,2.4407181490899545,0.0,-61.32694172,-3.4070523177777776,FeTeCl7
mp-22323,0.9604,-1.97683310775,6.9416405538048105,0.029353587500005492,-56.24905881,-5.624905881,In2O3
mp-541947,1.3674,-0.7559460029538684,4.37198252988032,0.0,-273.66870929,-4.561145154833333,Rb2Th(PSe3)3
mp-676923,1.8172,-1.4737615878289476,8.235668709816734,0.12140088131578965,-199.66938833,-5.254457587631579,Cd2Bi6O11
mp-4519,3.6802,-2.930204242625,4.745768146902919,0.0,-26.103445999999998,-6.5258614999999995,KPrO2
mp-754933,1.7748,-2.6300755914583336,8.732319222389112,0.0992459301562496,-26.0909687,-6.522742175,SmTlO2
mp-767010,,,,,,,
mp-767330,,,,,,,
mp-28171,1.0263999999999998,-1.3856861530499998,2.7728638820720124,0.0,-16.02930214,-3.2058604280000003,K3IO
mp-707343,4.7771,-1.436747481105925,1.8463615621640752,0.0,-321.81679225,-5.959570226851852,ZrH12C2(NF)6
mp-10314,0.4299999999999997,-0.6915804313333332,7.136176177582688,0.0,-16.83343476,-3.366686952,Yb(ZnAs)2
mp-767167,,,,,,,
mp-6310,3.8154,-3.3040356797656254,4.758922870099903,0.0,-740.020315,-7.708544947916668,Ba3Y(BO3)3
mp-554853,3.0661000000000005,-2.6274817511904764,3.736139036379962,0.004767732499999511,-271.25751269,-6.458512206904763,Na4Si3(SnO6)2
mp-779182,,,,,,,
mp-565920,,,,,,,
mp-2865,0.3388,-2.5625341079657145,3.1838197721020287,0.0,-119.75977542,-4.277134836428571,K2CuF4
mp-849238,,,,,,,
mp-757586,2.4969,-1.7932046796523529,4.727787872666204,0.0,-178.16377809,-5.2401111202941175,Ba2Tl(HO)7
mp-770532,0.6417999999999999,-2.3875565963814718,3.698891912989621,0.03907875874999078,-121.40755723,-7.587972326875,Mn2PO5
mp-761729,,,,,,,
mp-779903,0.6718999999999999,-1.726896212891667,4.262406058100775,0.6833999412499967,-127.01537958,-5.2923074825,Fe4O3F5
mp-757723,5.8658,-2.0337919667760835,2.5151967805363418,0.0,-233.38244492,-5.834561122999999,SrH4(SO4)3
mp-764362,,,,,,,
mp-568778,0.8077000000000001,-0.29351523083333336,5.240968410344156,0.0,-78.07983866,-3.253326610833333,CuTeBr
mp-21766,1.6869999999999998,-1.0345720938392855,4.901912758068629,0.0,-229.18391086,-4.092569836785715,Ba(InSe2)2
mp-767289,,,,,,,
mp-561058,4.0408,-2.5980288033673458,3.046794835719388,0.0,-352.51623062,-6.294932689642858,Na3Ga(PO4)2
mp-780641,,,,,,,
mp-756103,2.0475000000000003,-3.0270272095238093,6.83685051458613,0.0005061373214303443,-102.81526135,-7.343947239285713,Y2HgO4
mp-775605,,,,,,,
mp-769480,3.4273,-3.367349340805556,5.441524709509379,0.07306703438333173,-482.56683119,-8.042780519833334,Y4Ga2O9
mp-772366,,,,,,,
mp-780580,3.3259000000000003,-1.9372469491843265,2.4546184934863833,0.3304176289999949,-247.53334077,-6.18833351925,LiMnPH2O5
mp-505564,1.0179,-0.948500094207308,4.007465759126282,0.0,-171.45574693,-3.2972259025,Bi2Se4Cl7
mp-556283,2.7325,-3.132909262986112,2.710970453326643,0.011594994166657102,-270.61549672,-7.517097131111112,Na2TiSi4O11