id,band_gap,formation_energy_per_atom,density,e_above_hull,energy,energy_per_atom,pretty_formula
mp-764245,1.3822,-2.5891282379753835,4.2161384582396435,0.027891882499999632,-161.66961635,-6.736234014583334,Mg7Mn5O12
mp-772568,1.5112,-1.6648845191008776,2.9242065846162486,0.1010091907236852,-363.61347763,-6.3791838180701745,Li2Cr4O13
mp-676311,2.3629999999999995,-3.6191038507954563,6.240995738855142,0.2329839109090912,-192.32297664,-8.741953483636362,Nd2Zr2O7
mp-769152,4.0634,-1.0161584021737493,2.566538040492281,0.0,-154.60108419,-4.8312838809375,Sc(ClO4)3
mp-541629,5.7568,-3.5431603312071425,4.82153151864405,0.0,-147.40773495,-5.264561962499998,BaGaF5
mp-762883,,,,,,,
mp-772055,2.9558,-2.8131090229166666,2.9543921991837645,0.011396074333329231,-198.31987285,-6.610662428333333,Li6Ti2O7
mp-28679,3.483,-1.1261215920833336,3.20753916805745,0.0,-70.57899455,-2.9407914395833337,NaGaBr4
mp-780860,1.1398,-2.313092674247576,3.1579364270012595,0.1795538394318168,-104.99893397,-4.772678816818182,Li2Co2OF6
mp-763413,,,,,,,
mp-943466,2.8089,-2.249854953177476,3.1675742798469395,0.06190460737499759,-245.7282516,-6.14320629,Li2CoPHO5
mp-571046,1.3539,-0.8071403386625633,4.768393098422106,0.0,-151.78017411,-5.837699004230768,Sr5(GeN3)2
mp-686583,4.1738,-3.146091155274725,3.1190928387747485,0.019651747525642804,-297.8554734,-7.637319830769231,Na5Zr4Si3(PO8)3
mp-19535,,,,,,,
mp-14213,1.0529000000000002,-0.9457260326058198,3.653047672407794,0.0,-332.32091506,-4.615568264722223,Sr4GeP4
mp-27830,2.7708,-1.5526176186406468,3.0463995422406867,0.0,-26.78338065,-2.975931183333333,Cs2SeCl6
mp-559446,1.2340999999999998,-0.9472738644387764,2.7709767154166336,0.0,-64.84974465,-4.632124617857143,NaPPdS4
mp-31773,,,,,,,
mp-767039,1.7769000000000004,-2.0011433527562112,5.327961310751167,0.02476535369565269,-287.96975954,-6.260212163913042,Sn8P2O13
mp-25782,,,,,,,
mp-779199,,,,,,,
mp-770241,,,,,,,
mp-540264,,,,,,,
mp-722271,2.4352,-1.0406858712574072,2.2930397769396,0.05820033956166615,-293.91816438,-5.4429289700000005,H14RuS2(N2O3)2
mp-567070,,,,,,,
mp-771935,,,,,,,
mp-759450,2.6931,-1.7822272869184623,5.011735283685216,0.0837096401442361,-299.81664428,-5.765704697692307,Sb5O7F
mp-767811,,,,,,,
mp-769437,,,,,,,
mp-757280,3.1663,-2.0753396583552632,4.310670575163172,0.0,-235.84552737,-6.206461246578948,Ba2As6O11
mp-611393,,,,,,,
mp-778637,,,,,,,
mp-579128,,,,,,,
mp-767240,4.5992,-1.3357958753242465,3.0097119773240113,0.0,-228.08747578,-5.7021868945000005,CsPH4(NO)2
mp-16183,1.2818999999999998,-0.2306730857339009,5.284263656612527,0.0,-90.18174282,-4.099170128181818,Tl2B2Se7
mp-767605,2.488,-3.1897121524104173,2.6212047380457024,0.033120859375004315,-175.35459906,-5.479831220625,Li2VF5
mp-680443,0.2810999999999999,-0.1533245226538458,6.4317048674256645,0.007490783653846478,-159.39248213,-3.0652400409615383,K4Pb9
mp-22909,4.0499,-1.5440916355066667,2.755304988699379,0.0,-16.79887493,-2.799812488333333,ZnCl2
mp-771677,,,,,,,
mp-722979,1.98,-0.5328691016320003,1.907954167813588,0.0,-138.40215413,-4.613405137666667,K2Zn(H2N)4
mp-767682,,,,,,,
mp-779316,0.8821000000000003,-2.811626660813334,4.096332772028838,0.043314879999998716,-172.01161404,-7.167150585000001,VOF
mp-771123,0.9090000000000004,-2.8841969580833315,4.323275098154406,0.058431128916661024,-235.36048405,-7.845349468333334,ScFeO3
mp-762852,5.3551,-1.9042395971280297,1.7755917699682184,0.025774962499999887,-314.18845282,-5.41704229,Na2P2H12O11F2
mp-776190,,,,,,,
mp-767117,,,,,,,
mp-4051,5.475,-3.128535329761904,2.1513440665911925,0.0024524158333329997,-89.82547109,-7.485455924166666,AlPO4
mp-705312,3.5518,-2.5401583202721087,3.5639424999482907,0.017036836190476023,-573.86731046,-6.831753695952381,LiFePO4
mp-755881,1.8794,-3.2032375561195234,4.595989263561775,0.019614406395731976,-181.08351191,-8.623024376666667,Ba2Ti6N2O11
mp-761431,,,,,,,
mp-762561,,,,,,,
mp-504937,1.0831,-0.5441824044949266,3.175364423924747,0.0061349238970587186,-214.48104239,-3.1541329763235293,SbSe9Cl7
mp-752535,1.0781999999999998,-2.3446911526136374,7.376929126806696,0.10650045749998682,-151.24817886,-6.874917220909091,TaIn3O7
mp-761722,,,,,,,
mp-19408,1.2036000000000002,-2.434265753802082,3.1311770526934235,0.02536976406249281,-229.64835427,-7.1765110709375,LiV2O5
mp-866807,3.3509,-1.97998800858,2.2872438911875843,0.020066934230794864,-133.50833522,-5.13493597,TiZnH12(OF)6
mp-676002,6.2167,-4.238768904833,4.961596905477244,0.04464093950000248,-60.95038079,-6.095038079,Ba2PrF7
mp-868581,,,,,,,
mp-780336,1.9752,-2.2862962780494507,3.16705282378595,2.8482208866218723,-355.34881029,-6.8336309671153845,Li3Cr3(PO4)4
mp-703312,5.2005,-1.9868419572092209,2.494267702006204,0.017297260681827353,-249.74542181,-5.6760323138636375,RbPH4O5
mp-2604,1.1161999999999992,-0.5792789369444442,5.167636982524026,0.00560644583333314,-38.48533835,-3.2071115291666668,MgTe2
mp-28549,4.4497,-2.441284135055555,2.1667709669332496,0.004853957333333271,-165.57605664,-5.519201888,Li8SiO6
mp-32645,1.8079999999999996,-2.4208661027083336,5.755830462333586,0.04306792849999752,-255.66932054,-6.391733013500001,Sm2S3
mp-776268,1.6744,-1.2882219953333336,2.3843391147694373,0.0473457690000032,-323.58234618,-4.0447793272500006,Li5SbS4
mp-626791,1.4866,-1.8780981409049995,3.776139831634444,0.243056059999998,-106.57526533,-6.660954083125,VHO2
mp-504962,1.9199,-1.6669467783499996,3.1279031834612714,0.0,-170.24512119,-4.25612802975,K2Na3InO4
mp-23146,4.3706,-1.8611459579856249,4.433307458472073,0.0,-160.87913563,-5.0274729884375,TlZnSClO4
mp-651707,5.696000000000001,-3.2666299782142865,1.8468641118810059,0.01136769095237966,-664.00912276,-7.904870509047619,SiO2
mp-21525,0.40500000000000025,-0.21717078656249988,5.295185501373597,0.0,-82.03944313,-2.5637325978125,RbPb
mp-31933,,,,,,,
mp-18219,2.5741,-3.3571508902929685,7.1659440951415965,0.0005728537500004903,-247.89097924,-7.74659310125,Dy2SiSeO4
mp-769605,1.5101,-2.429089456041667,4.0549890460045965,0.010066834687499693,-221.57389008,-6.924184065,Li4VCr3O8
mp-26301,0.2375999999999999,-2.2962821047156083,4.287170779111694,0.0776974280416649,-472.81070683,-6.566815372638889,LiBi2(PO4)3
mp-6255,4.1026,-3.607222713,3.415862984496836,0.0,-632.10375306,-7.90129691325,Ca3Sc2(SiO4)3
mp-765557,,,,,,,
mp-504630,1.6597999999999995,-0.86305638317,4.501929792644986,0.0,-77.90403829,-3.2460015954166668,InTeCl
mp-698056,3.9854,-1.9105542080647369,2.997836494383726,0.000936413157898386,-204.38551962,-5.378566305789473,Na2CdH4(SO5)2
mp-776146,1.0216000000000005,-2.393968816845237,3.8944196747747455,0.014878363035693454,-396.94439377,-7.088292745892858,Li2V3FeO8
mp-559498,1.0719999999999998,-1.6955334127129629,4.665219460189292,0.005170534907404267,-521.59490264,-4.829582431851851,K9Bi5O13
mp-762468,,,,,,,
mp-8993,2.4108,-2.9958333608333327,6.0604655621965335,0.007008031000002468,-142.42470784,-7.121235392000001,Sm2S2O
mp-6485,1.6395,-1.4449635128949652,5.807152681741584,0.0,-129.74976705,-5.40624029375,La3SiAgSe7
mp-567135,,,,,,,
mp-12233,4.6602,-2.6964719410069438,2.8842124736926658,0.0,-720.43475796,-7.504528728749999,ZnB4O7
mp-773539,,,,,,,
mp-849475,1.7911,-2.442944618005832,3.2961768289004527,0.03394605895832559,-162.50409428,-6.771003928333332,VO2F
mp-569491,1.6429999999999998,-0.9455645452678572,4.771180019144701,0.0,-238.26314098,-4.254698946071429,NaLa(GaSe2)4
mp-29582,0.5086000000000004,-1.5544779044819046,2.3307237856308642,0.262572252460318,-58.73528483,-4.195377487857144,Li2CrCl4
mp-561196,2.0269999999999997,-1.1426697679910711,4.000116807740807,0.0008331489285717808,-98.24906011,-3.508895003928572,ZnS
mp-770037,,,,,,,
mp-25013,,,,,,,
mp-542826,1.2338,-1.358793694553572,5.802824584983666,0.020142613928571862,-159.49091813,-5.696104218928572,Sc2PbSe4
mp-559643,1.1690999999999998,-0.9386846018680028,2.666933297307636,0.13390330746753154,-106.22563232,-4.828437832727274,Rb2Mn(PS3)2
mp-771304,3.4709000000000003,-2.339352845673078,3.116857564984795,0.08760384711538816,-169.27434779,-6.510551838076923,Li3SiSbCO7
mp-755650,2.9958,-3.8333858515833343,7.3051293509368715,0.09509631391666318,-225.00458541,-11.2502292705,Gd3YO6
mp-764907,,,,,,,
mp-25192,,,,,,,
mp-555109,3.4056,-3.594991106388889,7.335988855761284,0.0,-106.2579439,-8.854828658333334,TmNbO4
mp-761981,,,,,,,
mp-19574,,,,,,,
mp-558967,1.7459000000000002,-1.3076638783359371,3.194237811810446,0.0,-344.68904796,-5.385766374375,K3Ta2S11
mp-764620,1.6916000000000002,-1.9772302023809512,3.16358124233908,0.42680137045634936,-288.08298691,-6.8591187359523795,LiFe4(BO3)4
mp-861944,3.4550000000000005,-3.116523135472222,5.458075827332392,0.0,-136.67666788,-7.593148215555555,KNaPrTaO5
mp-24436,3.8225,-2.154572271697436,2.8660542067994763,0.0010122622710593276,-459.940681,-5.896675397435898,Ca5As4(HO2)10
mp-600050,5.8144,-3.21357737875,1.641284925605383,0.06442029041666507,-565.33088949,-7.851817909583334,SiO2
mp-722278,5.7483,-2.6998993129102598,3.1859152069486916,0.0,-154.31207969999997,-7.014185440909091,BaSiP4(HO7)2
mp-2691,3.5799000000000003,-0.6279508711718749,5.300489254129418,0.0,-5.658016,-2.829008,CdSe
mp-763740,2.9610000000000003,-2.2504374323809526,2.3228506810181235,0.3752963353571541,-91.6086689,-6.54347635,LiFeSiO4
mp-1019537,3.2194,-2.0816368707607142,3.5358997091120563,0.03680341346642724,-218.00076563,-7.785741629642858,BaAlSi4N5O3
mp-758997,1.4634,-1.6432497722916668,3.5701621767384677,0.09226413194444484,-113.49418315,-6.305232397222222,LiCuCO3
mp-1013878,1.2858,-2.6007252281815485,3.0656345817594084,0.09401242837503963,-295.11600921,-7.377900230250001,LiV3P3O13
mp-771256,3.5442,-2.7087616190384614,4.107543480420853,0.002040231730769726,-334.25873871,-6.4280526674999985,Sr3(AsO4)2
mp-554782,2.1324,-1.1626258788257582,2.8395738858652075,0.03452765151515092,-96.23672209,-4.374396458636364,Li2Ga2GeS6
mp-764689,,,,,,,
mp-541214,3.7769,-1.938134253416667,2.132751130603544,0.011256104855069005,-259.37744486,-5.403696767916667,KS2O3
mp-7858,1.6662,-3.470423989722221,7.009875854312629,0.0,-101.38702348,-8.448918623333332,MgUO4
mp-769464,2.2105,-3.2195372082109874,6.477036275988863,0.04297549471229445,-370.20762107,-7.712658772291667,LiLa3MnO7
mp-27761,5.6859,-3.585618983939092,4.330921516074872,0.20916373977272415,-250.10514628,-5.684207870000002,Li3ThF7
mp-758337,5.3661,-2.867342451907143,2.2915718350261134,0.0,-360.67702981,-7.2135405962,Ca2P6O17
mp-24662,3.4262,-0.31646423154117626,2.429170682587844,0.0,-92.98016518,-2.7347107405882354,Rb4Mg3H10
mp-867839,3.0334000000000003,-3.20174637662037,8.477427688414833,0.008351988425923551,-508.01130683,-9.407616793148149,Ta7BiO19
mp-27425,4.0304,-2.183492470281333,3.3474738512222277,0.0,-110.31099146,-5.515549573,Sr(HO)2
mp-706670,0.8267,-1.5566651906976372,1.8070683256534208,0.005683262522721222,-285.77846553,-5.195972100545455,AlCuH28S2ClO22
mp-553278,1.4082000000000003,-3.008543378366477,6.51969428136245,0.0,-79.63694631,-7.239722391818183,Nd4Se3O4
mp-560237,,,,,,,
mp-560875,3.0057,-2.1489478811500007,4.07586354883516,0.006104726999999421,-546.8163111,-6.07573679,K2Ge4O9
mp-23326,5.2275,-2.8895129750736364,2.5812446487199217,0.0,-103.10252999,-4.686478635909091,Ca4Cl6O
mp-768812,3.037,-2.4329205024537046,5.478931406327806,0.06673727777777394,-249.11492953,-6.919859153611112,LiBiB2O5
mp-774355,0.5411000000000001,-2.3742257380000003,3.092472991336717,0.12393922200000065,-193.24179056,-6.441393018666668,Li3Co2(SiO4)2
mp-32119,,,,,,,
mp-540073,,,,,,,
mp-31488,3.7756,-2.724732105625,3.805225299855604,0.0,-218.43436928,-6.82607404,Li3NbO4
mp-541392,,,,,,,
mp-767521,2.7683,-2.325781005610119,3.186655673755932,0.0,-155.29043154,-6.4704346474999985,Na2InPCO7
mp-557232,0.7419000000000002,-2.309141119180555,5.992050926717888,0.02431748727083249,-75.19282297,-6.266068580833332,KSmPdO3
mp-24876,,,,,,,
mp-9856,1.3735,-1.3797486838155535,4.213509675999552,0.0,-58.20946382,-4.850788651666667,Cs2ZrSe3
mp-762279,2.7846,-3.3837729365648155,3.334935979751991,0.009255616481466332,-228.91940287,-8.478496402592592,K2Ti8O17
mp-775287,1.4969999999999999,-2.7033457299620003,4.087083595117637,0.019286755833332947,-169.69946031,-5.656648677000001,Fe10OF19
mp-29194,1.4578000000000002,-0.6760419989847597,5.726763319111245,0.0,-47.1171925,-3.3655137500000003,Cs2Au2Se3
mp-764960,,,,,,,
mp-565626,,,,,,,
mp-779059,0.8933,-2.8107097600733333,3.359141839006404,0.04077094938234538,-220.92918347,-6.497917160882353,LiV4O5F7
mp-555704,3.3417,-2.420236239553334,4.4095816857515215,0.0,-317.75140769,-6.6198209935416665,ReO2F3
mp-765256,,,,,,,
mp-5416,4.2261,-1.8126716101822915,3.255875636877543,0.0,-118.93353422,-4.955563925833333,Na2SeO3
mp-759874,1.2797999999999998,-2.2825840317559525,2.9932651461723703,0.08651988229998775,-521.07627501,-6.513453437625,LiCu(PO3)2
mp-7594,6.2725,-3.0237767129944246,3.9205462605989663,0.0,-70.96212938,-4.43513308625,CsLiF2
mp-6013,1.6707999999999998,-0.7362913765468749,5.107261642988376,0.0,-82.08113298,-5.13007081125,KTa(CuSe2)2
mp-604964,5.0153,-1.0782134377984969,1.567491695688351,0.06893519220815493,-452.30516631,-5.951383767236843,PH9C(NO)4
mp-707095,5.4776,-2.643311226572292,3.6391400078836953,0.002895055364586341,-444.42894673,-6.94420229265625,YHSO5
mp-763366,,,,,,,
mp-754761,3.8531,-3.605003124404761,6.423238769404478,0.006447074642856876,-222.21532409,-7.936261574642858,Sr2HfO4
mp-767728,,,,,,,
mp-554206,3.6624,-2.512781868816313,3.7781604892539673,0.0,-80.98479509999999,-6.229599623076923,Cs2Al2As2O7
mp-3595,0.8891,-0.19765540874999926,4.530761737826622,0.0,-33.58097803,-4.19762225375,ZnSiAs2
mp-545659,1.7331,-2.8358756117500006,7.448969625953818,0.0,-66.16389381,-6.616389381,Ba2DyBiO6
mp-763130,,,,,,,
mp-763688,,,,,,,
mp-778336,,,,,,,
mp-27947,0.27059999999999995,-0.1828212171428569,6.146180668337517,0.0,-26.10324639,-3.729035198571428,Sn(SbTe2)2
mp-755353,1.7830000000000004,-3.1979029967544443,4.154677780792558,0.02485166905047187,-180.51250701,-8.595833667142857,Sr2Ti6N2O11
mp-770277,,,,,,,
mp-770102,,,,,,,
mp-554328,3.5176000000000003,-1.8504143330208331,2.443238253485771,0.1595849873958297,-67.62928149,-5.6357734575,NaSO4
mp-27292,2.6253,-2.160585449075294,5.241141107611578,0.0,-128.00891484,-3.764968083529412,Hg3As2F12
mp-693682,3.9101,-3.107766476850044,3.0200617752770964,0.03060525223725996,-1196.46703355,-7.4314722580745345,Na25Zr11Sc5Si12(PO8)12
mp-570423,1.0197000000000005,-1.6510529791071429,5.106296051336472,0.0,-202.08435613,-3.608649216607143,Ba6Pr3I19
mp-619775,1.0406,-1.3450655918506058,4.5150866196270165,0.0,-239.09617245,-5.434003919318181,Y7C2I12N
mp-540881,2.6311,-1.1373391511159003,4.236468704709065,0.0,-64.07758361,-2.6698993170833334,Cs2AgI3
mp-571458,0.9996999999999998,-0.7633392984999997,4.234148163321176,0.0449642413333331,-13.98676939,-2.797353878,RbGeI3
mp-686042,1.8634,-2.1351658868269228,3.7297396873352864,0.0890571292307758,-227.62031554,-5.836418347179487,Zn4B2O7
mp-559366,4.2398,-1.2355513055353573,2.5291859374907246,0.014316043437499816,-128.19263967,-5.3413599862500005,PBrNF
mp-773368,,,,,,,
mp-765743,,,,,,,
mp-767913,,,,,,,
mp-779314,2.8247,-2.352609617677476,2.8561785074190507,2.096386547000004,-259.46135688,-6.4865339220000005,Li2CrPHO5
mp-616135,0.8444000000000003,-0.3410177053188284,3.8175751194273793,0.0041330100734358055,-116.83767779,-3.2454910497222222,Cs5SiP3
mp-567371,2.0510000000000006,-0.7317692253964443,4.328747517013834,0.0,-80.63052994,-5.375368662666666,Sr3Li4(GeN3)2
mp-780782,,,,,,,
mp-697797,1.1526999999999998,-2.521293126134453,2.648893599820065,0.03822004529411505,-245.72693677,-7.227262846176472,V(PO3)4
mp-758054,1.0323,-1.9676081741266669,3.5999678680933536,0.03934980166666602,-44.45860298,-3.704883581666667,LiAgF4
mp-24075,3.6657,-2.3196231992299987,5.876820285196197,0.02498882071428365,-86.55195531,-6.182282522142858,Ho(HO)3
mp-18744,1.2344,-3.1563458155833333,6.236252756259026,0.0,-144.59694683,-7.2298473415,Sr2ErMoO6
mp-565539,,,,,,,
mp-775449,,,,,,,
mp-23059,2.5354,-1.8775050993955555,2.9540645400306946,0.0,-30.37401488,-3.3748905422222224,Rb2SnCl6
mp-8188,3.6247,-3.105972115125,3.423675651165852,0.0,-28.35808745,-7.0895218625,KScO2
mp-3887,2.3783,-0.6596620089183329,3.4777299553034644,0.0,-228.94219927,-4.769629151458333,Li3GaN2
mp-770833,1.2701000000000002,-2.3461314123958332,3.536015638309243,0.0785914444531235,-200.96497801,-6.2801555628125,Li2SnBO4
mp-541368,2.6066000000000003,-1.8315714899038469,6.709966154418801,0.0,-77.77741167,-5.982877820769232,Tl4V2O7
mp-27669,3.0922,-0.4246648493249999,1.6472847157033166,0.07827903401619363,-189.87602157,-4.74690053925,HS3N
mp-4394,2.6415,-2.9707794212500014,6.725270718603375,0.0,-159.88924033,-7.267692742272727,Pr2Sn2O7
mp-558106,4.6716,-0.7786028124144548,1.4941076916915546,0.09132239276411268,-697.44739917,-5.860902514033613,SnH58C16S4(N11O9)2
mp-775526,,,,,,,
mp-776461,1.2513,-2.8539426596775,4.795261715723057,0.06311271791666684,-208.28465667,-8.67852736125,BaNb3NO7
mp-706910,5.4125999999999985,-2.0574803134668755,2.23842474994164,0.03419684992187566,-388.13376186,-6.0645900290625,MgB2H6O7
mp-582767,1.7969999999999997,-1.9450008718229173,4.687889863995811,0.0,-142.35135829,-5.931306595416667,La3CuGeS7
mp-743613,0.7816000000000001,-1.315677670813956,1.9640249693917564,0.5825076334868724,-99.19044874,-5.22054993368421,KMnH5(SO5)2
mp-7976,3.0041,-2.9952160150000005,6.271867623048274,0.0,-35.52885131,-8.8822128275,RbGdO2
mp-6336,3.3641,-2.5627752405102044,3.5773010987030798,0.00022840178570948663,-349.43640634,-6.2399358275,Na3In(PO4)2
mp-764547,1.6303,-2.3666780543939385,3.233552657068084,0.046041359159115565,-312.99099851,-7.113431784318181,LiFe2(BO3)2
mp-558206,1.7174,-3.097167555425,5.8476769118097325,2.6226041183958344,-307.41114043,-7.685278510750001,K9U6BiO24
mp-759289,4.6835,-2.5065266536640207,3.6136622307760824,0.07168784611109924,-247.02789614,-6.8618860038888885,LiBi(PO3)4
mp-42054,2.542,-3.1393927307499987,7.549468598151885,0.1202682911666848,-76.84013594,-7.684013594,BaLaTaZnO6
mp-13654,0.5830000000000002,-0.8204616575000003,9.029233991400346,0.0,-107.88096701,-5.394048350499999,Y3Sb4Au3
mp-768476,1.3562,-1.38433520859375,2.22413160683318,0.056786230468749636,-318.20612693,-4.97197073328125,Li3VS4
mp-850364,1.3059,-1.538360211225,4.205348414471868,0.8719359429166635,-122.49051554,-5.103771480833333,Fe4O3F5
mp-765229,,,,,,,
mp-619791,1.6390000000000002,-2.2904394421462504,4.3036779701571914,0.0,-182.13053006,-5.691579064375,La5C2Cl9
mp-24868,,,,,,,
mp-763093,,,,,,,
mp-762426,,,,,,,
mp-755071,1.3261999999999996,-2.0663931024999997,5.872141536072728,0.056996963333333824,-37.36561045,-6.227601741666668,SnO2
mp-5905,4.1009,-3.702210491666667,4.4517235874371615,0.02954448696428713,-238.27878998,-8.509956785,Y2BeO4
mp-768166,5.7623,-1.1098524537362495,3.145217886267192,0.0,-154.14792931,-4.8171227909375,Dy(ClO4)3
mp-6903,3.7742,-3.3752946357480003,3.3117062235832595,0.0,-451.64113483,-7.527352247166665,Na2Ca4ZrNbSi4O17F
mp-27342,4.3666,-2.5228865678988237,3.5048335120968384,0.0,-166.04646282,-4.883719494705882,Ge5F12
mp-773359,1.3453,-2.1890010604166665,4.200479410481597,0.05803839053571558,-101.89438006,-6.36839875375,Li2VCoO4
mp-541114,1.9779,-3.3058958749163327,4.6664352959151865,0.0,-214.88112701,-5.37202817525,Sr2RhF7
mp-542038,5.098,-3.740809527422941,6.0018638287555035,0.0059174504411565465,-549.77365261,-8.084906656029412,Er3Si3O10F
mp-676325,1.5820999999999996,-1.7763528622023816,8.304292686721888,0.126414172857074,-129.8032809,-6.181108614285715,NbBi7O13
mp-753903,0.5058000000000002,-2.0215833241287884,6.011560444140141,0.08098385481059278,-146.17737778,-6.644426262727272,Bi2B2O7
mp-778788,,,,,,,
mp-554542,5.4163999999999985,-3.438816288065333,2.9091562494879226,0.0,-125.71377616,-6.285688808,Mg3B(OF)3
mp-675118,2.8603000000000005,-4.2675450941522985,8.875447663210037,0.0418677558189664,-276.66946695,-9.540326446551724,Y2Th8O19
mp-772521,3.9931,-2.451789085055556,2.2293187052757943,0.00352443733333363,-170.83452951,-5.694484317000001,Li8TiO6
mp-566001,,,,,,,
mp-19452,1.9544,-2.6079721848469397,3.5446742211100064,0.0,-151.56679101,-7.217466238571428,V2Cd(P2O7)2
mp-616668,,,,,,,