id,band_gap,formation_energy_per_atom,density,e_above_hull,energy,energy_per_atom,pretty_formula
mp-978553,0.892,-0.082906862,4.061514564,0,-119.7577699,-4.98990708,SiAs2
mp-862668,0,-0.309908045,12.02158024,0,-16.17005352,-2.02125669,CeHg3
mp-18837,3.6132,-2.590312965,3.020058734,0,-87.00063461,-7.250052884,KSc(MoO4)2
mp-849656,0.1783,-2.533037091,2.940049144,0.081673668,-236.2203456,-6.749152732,Li5Co4(Si3O10)2
mp-29209,0.3968,-0.600209118,5.700026155,0,-15.93079904,-3.186159808,Ba(MgBi)2
mp-849260,0.7234,-0.417129619,4.290851611,0.036886903,-140.9445077,-4.145426696,ReH8(I3N)2
mp-10480,0.0057,-0.325055522,6.565055847,0,-113.7310234,-3.159195094,CsAg5Se3
mp-21101,0,-0.773906641,13.02980928,0,-76.25444312,-7.625444312,U(SiPt)2
mp-977444,0,-0.292575642,14.44164114,0,-20.04358035,-5.010895088,PaAgAu2
mp-555485,3.3463,-3.147680725,3.654497987,0,-618.0760304,-7.72595038,Rb2GdGa(SiO3)4
mp-10488,1.6088,-1.304025494,4.178013712,0,-81.8783164,-4.548795356,Cs2Ti(AgS2)2
mp-27626,1.0131,-0.089631246,5.709108751,0.000893716,-229.839651,-4.256289833,Ge19(AsI)4
mp-685257,0,-1.406461308,8.092701982,0,-194.6220672,-4.86555168,CdPbO3
mp-11706,2.0927,-3.079746404,9.382568277,0.003209881,-95.84739923,-6.846242802,Ho2HgO4
mp-674459,6.854,-4.014336049,5.563987674,0,-71.3480591,-5.945671592,NaErF4
mp-27564,3.6846,-2.411387268,2.47848823,0,-132.7359904,-6.033454109,Na4B2O5
mp-1008472,0,0.603168486,4.841889207,0.80355072,-14.74696627,-3.686741568,CdSiP2
mp-11984,0,-0.34742553,6.803617759,0,-34.44283461,-3.826981623,YMgTl
mp-770708,0,-2.433948691,3.390653705,0.0799815,-162.9452678,-6.267125683,Na3SiBSbO7
mp-573548,0,-0.503976509,7.368214874,0,-48.4899264,-5.3877696,La3(GaNi2)2
mp-779690,1.9174,-1.213850367,5.772728155,0.085697675,-171.4866606,-4.763518351,Hg(TeO3)2
mp-510566,1.7775,-1.932601823,4.823287634,0,-140.6612319,-5.860884662,La3CuSnS7
mp-642804,0.358,-2.044778332,3.171615812,0.016067621,-103.3061493,-5.739230518,KCu2P2H3(O4F)2
mp-641945,0,-0.655069719,7.592094936,0.000809604,-137.908594,-4.92530693,Tb2Sb5
mp-556005,2.0467,-1.13889457,3.995601084,0.001408785,-56.120276,-3.50751725,ZnS
mp-37808,0,-1.86364048,5.116723132,0,-184.388102,-9.704636949,Sc(TiN)9
mp-861511,0,-0.525975776,7.741564843,0.048284421,-65.3301146,-8.166264325,PuP3
mp-18833,0,-2.615994028,4.369682684,0.035619542,-88.1188117,-6.778370131,Sr3Cr2O8
mp-775263,0,-1.163684385,4.542788941,0.037915351,-175.6330802,-4.878696673,Li6CoNi9O20
mp-559575,1.3837,-1.61641363,3.741157384,0.006265171,-155.9934785,-3.545306328,AsSe(IF2)3
mp-23092,2.62,-2.968820836,7.741115706,0.001613757,-74.6495889,-7.46495889,Ba2TaBiO6
mp-753405,0.4592,-2.33893457,3.540881237,0.022392348,-87.85435269,-4.392717635,LiCuF3
mp-3195,0.3131,-0.813641876,5.323291925,0,-97.13676212,-3.349543521,Sr11(CdSb2)6
mp-7531,3.9435,-3.456316238,2.518966003,0.013320628,-164.9364692,-7.171150836,Ca4Al6O13
mp-676274,0.7639,-0.35487112,8.270046786,0,-52.04482314,-3.252801446,Tl9SbSe6
mp-3125,4.0941,-2.860975396,3.436871869,0,-50.15221231,-4.179351026,K3Zn2F7
mp-10152,0,-1.033809775,10.7864855,0.011613321,-77.34785703,-7.734785703,La(SiIr)2
mp-989622,1.4275,-0.834473953,6.93779071,6.54E-05,-171.6560244,-8.582801222,BaWN3
mp-30368,0,-0.687048872,5.777425078,0,-50.65745968,-3.16609123,Ca5Au3
mp-23700,5.3401,-1.993128323,2.777831374,0,-92.43445093,-4.621722547,RbH2OF
mp-631319,0,1.046553919,7.554601985,1.312770503,-19.10929545,-6.36976515,LiTiRe
mp-20729,0,-0.467586622,7.297904439,0,-15.05251303,-3.763128258,LaIn3
mp-2402,1.2341,-0.003001724,1.752050915,0,-54.15777711,-3.384861069,NaSi
mp-676341,0.2493,-3.572980265,5.077307575,0.010284121,-109.3006449,-6.072258051,Na2UF6
mp-32314,0.015,-2.252770833,2.919457556,0.058156391,-282.8288133,-6.427927576,LiNiP2O7
mp-978511,0,0.218423424,13.26851932,0.218423424,-32.33473826,-8.083684565,SmPa3
mp-558637,1.6418,-1.147163726,6.550948085,0.020078865,-195.0892233,-4.877230582,AgTeO3
mp-543056,2.9891,-2.075161989,3.306985579,0.150199551,-238.591948,-5.819315804,Mg7As6(HO6)4
mp-758044,0,-3.169353259,3.878911732,0.021156795,-232.2507696,-8.008647229,Li5Ti8O16
mp-31284,0,-0.063727161,5.539275693,0.007035996,-43.53550343,-3.627958619,NaSn5
mp-505055,0,-0.419294965,12.62035113,0,-198.0946241,-5.826312473,Na3B5Pt9
mp-744084,0,-1.681220249,2.831755105,0.011495334,-178.1495835,-4.948599542,MnAgH8(OF)4
mp-17025,4.4178,-3.351983002,4.026607609,0.002514651,-246.4491775,-7.701536798,Sr3Y(BO3)3
mp-558703,5.1151,-3.231619518,6.383428995,0.0064197,-287.9916974,-5.333179582,Al3Pb5F19
mp-756742,4.5901,-3.955872676,8.626687159,0.027551718,-164.4858551,-8.224292755,Lu3AlO6
mp-1018086,0,-0.676956097,8.557349495,0,-24.93275475,-6.233188688,CePd
mp-781591,0,-2.45608167,3.114653613,0.043305159,-195.3981751,-6.513272503,Li3Co2(SiO4)2
mp-971837,0.7726,-0.460618941,5.469284303,0.004693911,-20.62973441,-2.578716801,ZnCdTe2
mp-690702,3.4112,-2.188915106,3.805429351,0,-179.5479798,-6.412427851,SnPHO4
mp-763336,0.6141,-2.039544119,4.070163079,0.082369114,-94.28799041,-6.734856458,Li2Cr3CoO8
mp-705551,1.1404,-1.659075363,5.292031557,0.059510568,-204.9564424,-6.611498141,Fe15O16
mp-705519,0,-0.870176662,6.361805165,0.037127498,-148.8119668,-4.800386025,Ni15O16
mp-22032,0,-0.692282927,11.85443294,0,-54.95999609,-6.106666232,TbInIr
mp-554818,3.0687,-1.796122538,4.668274363,0,-114.1479378,-5.188542629,KTe3O6F
mp-13627,1.6995,-3.31480442,6.444412462,0,-421.7399369,-8.786248686,Y3ReO8
mp-989643,0.4882,-0.794759135,4.959480049,0,-79.73559622,-7.973559622,LaCoN3
mp-766931,3.3892,-2.574611046,3.183396909,0.081284683,-431.7602926,-6.541822615,Li2Si2NiO6
mp-20820,3.5995,-1.170761726,4.333928192,0,-222.007052,-6.166862554,Pb(NO3)2
mp-626127,1.6936,-1.185818087,1.421673343,0.081563908,-290.3622927,-5.185040941,H7NO6
mp-781507,0,-2.026363469,4.351391998,0.078351689,-145.2348229,-6.051450955,Fe4O5F3
mp-39684,2.3317,-2.808404615,6.569125988,0,-349.9998943,-7.954543053,GdTiCdSbO7
mp-998367,0,-0.774546821,8.573629718,0.130429228,-46.64139202,-9.328278404,YReN3
mp-567970,0,-0.466262949,7.594120982,0.041289548,-106.269356,-8.174565845,Hf3(Al2C3)2
mp-754005,3.4604,-2.060293447,2.540236199,0.084461658,-102.765994,-7.340428146,Mg(CO2)2
mp-4993,0,-0.843626196,6.932364407,0,-49.26172057,-6.157715071,TbSi2Ni
mp-554002,4.9968,-2.115675158,2.392085744,0.022995367,-163.8251394,-5.850897835,Al(HO)3
mp-1017514,4.1935,-1.08238521,3.872333349,0.282435941,-27.26413734,-6.816034335,MgSiN2
mp-567437,1.3419,-0.278848135,3.927865406,0,-154.6766747,-3.51537897,Pd(Se4Cl)2
mp-569522,0.4901,-0.361146053,4.056810916,0,-195.6249415,-6.520831383,MnP4
mp-540833,1.7421,-1.935529598,4.523998377,0,-178.9512,-6.882738462,V2Co3O8
mp-1018165,0,1.486102531,15.33593112,1.486102531,-12.31009742,-6.15504871,PtC
mp-555439,6.7392,-3.035785559,3.521349059,0.066066177,-73.17558603,-4.573474127,CsLi3F4
mp-752656,3.131,-3.595844683,6.270479651,0.00768231,-215.4174011,-7.69347861,BaLa2O4
mp-17461,0.0653,-2.859968715,2.955548769,0.060726229,-324.3987191,-7.372698162,NaTiP2O7
mp-13909,0,-0.122738525,4.731438355,0,-199.9428374,-3.702645137,K4Sn23
mp-16828,5.6046,-2.834905952,2.222017552,0,-331.1170347,-7.525387152,Li3B7O12
mp-24396,5.1964,-1.647747432,1.660457053,0.008710221,-565.6192581,-5.237215353,MgH14SO11
mp-705134,3.7072,-2.070865067,3.612675798,0,-907.3554743,-6.671731429,In2(MoO4)3
mp-771189,2.1187,-3.451262268,5.756248016,0.020687791,-132.3253672,-7.783845128,Ba4Ti3O10
mp-1020060,5.5096,-2.066575256,2.182704036,0,-983.5639295,-6.147274559,LiB(S2O7)2
mp-35907,1.0813,-1.481247271,6.860082658,0,-72.87668966,-5.205477833,La5TlTe8
mp-554686,2.6713,-2.089525504,3.308144353,0,-338.4020366,-3.678283006,MgAs2(XeF9)2
mp-567347,0,-0.371499423,5.566623331,0,-12.14001401,-3.035003503,Li2AgSn
mp-12878,3.7028,-3.121428616,5.517533705,0,-141.0712288,-7.05356144,Sr2YSbO6
mp-927,0.8231,-0.113419661,4.285587373,0,-61.03655979,-5.086379983,CuP2
mp-754213,0,-2.461422162,4.794473202,0.070477872,-53.05979759,-6.632474699,Li2ZrCuO4
mp-757156,2.8195,-2.482000827,3.168013965,0.031422846,-237.1191424,-6.974092423,Sn(PO3)4
mp-31250,3.0215,-2.308239233,6.565822179,0,-139.1888531,-6.959442653,BiBO3
mp-30143,2.0411,-1.839281416,5.55125245,0,-136.7498636,-6.215902892,U(IO4)2
mp-35143,0,-1.843731155,4.504907804,0.003641106,-63.29928843,-6.329928843,BaNbS3
mp-7289,0.5885,-0.717711405,3.970605103,0,-60.94588424,-3.047294212,K2Te3
mp-26630,2.7356,-2.975565067,2.743647334,0.009029877,-156.1145461,-7.805727306,TiP2O7
mp-9855,0.7602,-1.610704065,4.809674182,0,-70.4426688,-5.8702224,KHfCuS3
mp-540313,4.1886,-2.57306257,3.044222496,0.031609943,-195.8495985,-6.994628519,LiFe(PO3)3
mp-972993,0,-0.682068576,10.71104231,0.011526401,-15.89983932,-3.97495983,LiSmAu2
mp-7083,0,-0.756258491,5.423840393,0,-47.45770272,-5.93221284,LaSi
mp-776361,0.939,-2.146466116,4.337233035,0.055260486,-373.2635588,-9.331588971,Ti2N2O
mp-998198,4.085,-1.937668433,3.203443089,0.024226729,-17.59421377,-3.518842754,RbCaBr3
mp-13478,0,-0.771928408,6.522242108,0,-51.52938282,-6.441172853,SmCoSi2
mp-18926,0,-2.749908195,6.905567512,0.0229113,-169.1841845,-7.04934102,La3Ni2O7
mp-740750,4.8057,-2.249472275,2.113907782,0.032921293,-350.1242546,-6.036625079,Na4P4(H2O5)3
mp-624299,0,-0.394884373,5.670957044,0,-187.5857925,-4.263313467,Cu7S4
mp-1394,1.3243,-1.11741451,3.817390729,0.003023537,-9.61172366,-3.203907887,Rb2O
mp-31411,0,-0.207094532,5.331067375,0.009469957,-78.63377366,-6.04875182,Th(Al2Cr)4
mp-19746,0,-1.213965211,6.75571355,0,-51.19861803,-6.399827254,NbPbS2
mp-20972,0,-0.202148661,8.348147589,0.002473035,-23.81316451,-3.401880644,YbIn5Co
mp-30123,0.7264,-0.937098323,7.053017824,0,-261.8059428,-4.090717857,Hg2SeO5
mp-25385,0,-1.101817968,4.599650845,0.035622859,-69.44988746,-4.960706247,Li(CuO2)2
mp-8736,0,-1.242754218,5.216660627,0.002416831,-113.2147733,-7.547651552,Sr(Mo3S4)2
mp-770680,2.1141,-2.210971026,2.686339574,0.068049208,-455.6295892,-5.695369865,Li9Mn2AlO8
mp-20661,0,-0.576017833,8.250785848,0,-62.0505431,-7.756317888,Ti2PbC
mp-29303,1.3233,-0.758117031,5.203462779,0.012941529,-174.016528,-4.143250666,Tl4Sn5S12
mp-559391,4.8318,-3.39190881,4.716702533,0.004937309,-218.8535402,-7.295118008,Pr3Si2Cl3O7
mp-762224,0,-2.242387559,3.846321318,0.070827286,-176.1057857,-6.289492347,Li4Cu3Sb(PO4)4
mp-866296,0,-0.61999876,9.053521301,0.003259121,-20.68367439,-5.170918598,AlCuPd2
mp-31139,0,-0.437595844,8.842936131,0.001871884,-135.3709543,-5.640456429,TbNi
mp-763931,0,-1.649351293,5.069360331,0.116614861,-94.98608127,-5.277004515,CoOF
mp-29920,0.8347,-0.846154948,5.481968797,0,-63.63581421,-3.181790711,Rb5Au3O2
mp-755666,0,-2.515767087,8.163705084,0.405971244,-27.23175667,-5.446351334,Yb2TeO2
mp-11564,0,-0.98791344,11.65931721,0,-13.80094307,-6.900471535,TmRh
mp-505070,0,-3.489133741,8.592712132,0.012714997,-249.79434,-9.607474616,CeTa3O9
mp-772959,5.477,-3.175626557,3.863751984,0.027082615,-584.2172074,-7.687068518,Er2P4O13
mp-558330,2.0229,-1.099729463,3.416532615,0,-102.5503472,-3.204698349,IClOF
mp-632802,0,-1.98672383,6.502397308,0.050486588,-71.82933196,-5.525333228,Ba2CaTlCu2O7
mp-542382,0,-0.15243368,12.02546274,0,-120.9806448,-5.0408602,ThTl
mp-8490,0,-0.277536667,4.100621813,0.005186571,-42.51475313,-3.542896094,LiGe
mp-28234,4.3195,-3.448519607,3.682669275,0.011630589,-475.268098,-7.426064032,CaAl12O19
mp-777546,0,-1.359285589,4.257977781,0.08728096,-27.30414186,-4.55069031,NaSnO
mp-29060,1.401,-1.017022581,5.394883664,0.013761976,-325.6389172,-6.262286869,Ba5(SiN3)2
mp-861587,0,-0.446049075,7.733210687,0,-41.66691138,-3.787901035,Pr2In8Pd
mp-554025,4.0481,-0.828356724,2.050556237,0.178784811,-91.93506617,-5.107503676,SNF
mp-17093,0,-1.01141775,9.00359438,0,-145.6409885,-6.06837452,ErSiPd
mp-754377,3.1657,-2.319081415,2.510044705,0.082634101,-100.2317163,-5.568428683,K4TiO4
mp-9929,0,-0.612951351,6.538644133,0,-50.34355709,-6.292944636,ZrCuSiAs
mp-7366,0,-0.360347799,6.779266273,0,-17.16193439,-3.432386878,Sr(AgSn)2
mp-985277,0,-1.569066279,7.343590734,0,-212.6482799,-6.645258747,Ce2USe5
mp-11398,0,-0.371737018,8.768329292,0,-40.95718449,-5.119648061,Ga3Ni5
mp-10486,1.5883,-1.690035616,5.065624254,0.014124001,-59.30045031,-5.390950028,Cd2As2O7
mp-557027,4.3938,-2.988319297,2.998444416,0,-177.551515,-6.828904422,Rb2Be2Si2O7
mp-764344,2.9324,-2.606297934,3.05951639,0.023690294,-105.4482752,-6.590517197,Li2FeSiO4
mp-1514,0,-0.579627229,13.03875505,0,-26.3893311,-8.7964437,UB2
mp-989782,0,0.00581289,8.935841222,0.00581289,-8.18695876,-4.09347938,Cu
mp-771545,0.6453,-1.967968564,3.902029695,0.08022184,-144.2721712,-6.557825963,Li4Mn5CoO12
mp-761716,0,-1.760615053,5.404441897,0.028684848,-84.34999348,-7.029166123,MnFe2O3
mp-10965,0,-0.610806915,8.635433743,0,-36.26407515,-4.533009394,DyAgSb2
mp-638141,0,-0.4836942,8.594248756,0,-193.3960857,-5.372113493,LiSn5Rh3
mp-18642,1.5337,-2.483115863,3.424115308,0,-184.7061931,-6.596649755,Ca(YS2)2
mp-505207,0,-0.315748197,8.736614636,0.034350101,-166.0544335,-6.918934728,Sm2Co7B3
mp-3803,0,-0.50241017,12.6590842,0.071574644,-165.7312677,-10.35820423,Ta4AlC3
mp-866115,0,-0.659342075,8.542207845,0,-22.62144919,-5.655362298,Be2PdRh
mp-638051,0,-0.653102753,9.140758737,0,-88.64811489,-5.540507181,LuNiGe2
mp-8256,2.091,-2.049346247,5.87543062,0,-32.2477265,-4.030965813,ZnPtF6
mp-761872,0.5711,-1.702710316,4.532267956,0.083790468,-70.58763145,-5.041973675,Na2Sn2O3
mp-10118,0,-0.403142567,6.153078065,0.045968616,-57.01385212,-8.144836017,Mn3B4
mp-753257,0.828,-2.222700563,3.390075948,0,-50.05133767,-4.170944806,LiCuF4
mp-561413,0,-3.66106992,4.990758338,0.121207621,-245.8718052,-5.587995572,Rb2Tb3AlF16
mp-772596,0.2638,-1.238950632,4.754591301,0.049317015,-143.084352,-5.110155428,Li2FeNi3O8
mp-10476,5.7495,-2.667927954,3.963035598,0,-157.3222135,-6.55509223,NaEr(SO4)2
mp-24144,4.8217,-2.112879182,2.174800332,0,-362.4316309,-6.471993408,Na5ScH4(C2O7)2
mp-27579,4.4173,-2.622515397,2.506458127,0,-319.4032052,-6.14236933,Na4P2O7
mp-7572,5.4889,-2.538928778,2.891904105,0,-74.41597386,-6.201331155,MgSO4
mp-23497,3.1982,-0.944321386,4.234200111,0.026322999,-71.10103515,-2.539322684,Li2ZnI4
mp-37949,0,-0.534611951,6.88391868,0,-29.24584433,-4.874307388,NdSiAg
mp-558660,3.623,-2.73491828,4.999150427,0,-260.8975326,-6.522438315,Mg2BiPO6
mp-557561,2.4604,-1.870385653,4.17685614,0,-318.7897821,-5.903514483,Sm6Si4S17
mp-765731,0,-2.747808439,3.91107587,0.043960595,-116.9892783,-6.499404349,Mn3OF5
mp-22489,0,-0.606359479,9.807823306,0,-85.19166273,-7.099305228,HfCuSi
mp-743573,2.5406,-2.70292571,3.779667804,0,-531.1621742,-6.988975977,KBaFe2(PO4)3
mp-862967,0,-0.463707234,11.69055042,0,-23.66211634,-5.915529085,PmTlRh2
mp-4738,0,-0.711302347,5.63792593,0,-35.74574351,-5.957623918,PrScGe
mp-18795,0.7725,-1.939309387,5.078086529,0,-140.658395,-7.032919748,Mn3TeO6
mp-975385,0,-0.610270007,4.754099845,1.492800069,-23.42565467,-4.685130934,RbBO3
mp-22232,0.7903,-0.521922,6.619370696,0,-28.37098866,-3.546373583,TlInSe2
mp-10572,4.6825,-0.82121975,3.084900329,0,-51.8760385,-6.484504813,NaPN2
mp-767715,0,-0.871064188,2.753036013,0.082742289,-165.4858425,-3.377262092,Li34(Sb3S2)3
mp-23582,1.4216,-2.000459302,4.077835195,0,-69.82133653,-4.987238324,KLi6BiO6
mp-10415,0,-0.810237576,9.800398954,0.019125915,-52.70267954,-4.791152685,Yb3(GePd)4
mp-971820,0,0.346519708,5.334858083,0.346519708,-7.63904814,-1.909762035,ZnH
mp-5914,3.3011,-0.966107714,1.737188125,0.003096364,-136.4161408,-5.684005867,Li3BN2
mp-560331,1.8945,-1.656613504,2.576452184,0,-289.7772742,-5.174594182,K2ZrS4
mp-754011,0,-1.591711935,7.996499144,0.078815265,-109.7566359,-5.487831796,Li(BiO2)3
mp-981387,0,0.138872104,12.48861915,0.138872104,-4.25382787,-1.063456968,Hg3Bi
mp-779608,3.1069,-3.117972307,4.52314407,0.04949414,-157.5740414,-7.162456426,Ba3(BO3)2
mp-540146,1.0758,-2.373884544,2.973431386,0.087723805,-176.1486459,-7.339526914,MnPO4
mp-6276,3.6882,-2.130878965,3.410497524,0.004548665,-422.5883024,-5.560372399,K2Cd2(SO4)3
mp-975647,0,0.01793712,7.181903523,0.141315973,-17.10796946,-4.276992365,Pr3Ag
mp-6598,0.8983,-2.500568703,2.745949085,0,-252.3738519,-6.641417155,K2Cu(PO3)4
mp-9673,0.1099,-0.42281264,3.515686724,0,-38.81734363,-3.881734363,K2NiAs2
mp-978489,1.2251,-2.19391405,8.933262948,0.423991368,-32.77560492,-6.555120984,SiPbO3
mp-705495,5.5273,-2.326983428,2.371278772,0.014390361,-446.4263908,-6.565093982,CaB3H5O8
mp-541096,2.1254,-3.253431698,5.216667388,0,-307.7652075,-8.549033542,CsUNbO6
mp-600067,5.74,-3.262473999,1.372429749,0.026677016,-1325.271895,-7.888523182,SiO2
mp-780764,0.3499,-2.330508155,2.76662745,0.081852469,-455.0225922,-6.691508709,LiCuP4O11
mp-16813,1.9526,-1.080616028,1.850714634,0.112744853,-278.3005289,-5.797927685,BS4N4F3
mp-5019,0,-0.480062739,7.270979257,0,-44.03479679,-7.339132798,YCo3B2
mp-695816,2.4151,-2.511110253,2.745435794,0.079628451,-302.6460454,-6.878319213,LiFeP2O7
mp-757791,4.0156,-3.982959134,5.022838564,0.000799836,-362.4794413,-9.061986033,SmY15O24
mp-559984,1.2244,-1.301444009,4.816508462,0,-237.719971,-3.714374546,Rb8AlAu3O4
mp-7958,3.8889,-3.027791031,4.590395779,0,-26.60092036,-6.65023009,KLaO2
mp-10495,1.0787,-1.71323164,5.638046585,0,-90.5846059,-5.661537869,NdCuS2
mp-1357,0,-0.582557992,4.950267221,0,-103.6262117,-6.476638233,P3Rh
mp-865129,0,-0.71239443,8.09622763,0,-46.92707432,-4.692707432,Lu2MgGe2
mp-16744,0,-0.357205778,3.840918134,0,-131.0235056,-5.039365601,Y(Al5Fe)2
mp-23444,2.857,-1.892687319,2.618264031,0,-91.09327206,-3.795553003,AsCl2F3
mp-11100,0,-0.381461648,8.504436595,0,-25.305299,-3.615042714,YbIn5Rh
mp-770667,0.9246,-2.238687683,3.568592987,0.019189348,-450.4669452,-6.25648535,Li24MnCr11O36
mp-777853,0,-1.355317513,3.050565191,0.079754508,-296.8992793,-4.123601102,Na9Cu2O7
mp-653450,0.2108,-1.119495103,5.725636501,0.017811369,-266.2828114,-4.931163174,CuAg7As4ClO14
mp-690112,0.4912,-1.687007378,6.638977611,0.344483485,-60.99854645,-6.777616272,H(WO3)2
mp-6404,4.0726,-1.071980095,3.776657769,0,-625.3167903,-7.444247504,BaCa2(PN2)6
mp-631495,0,0.829121402,3.495916121,0.829121402,-12.23715066,-4.07905022,BaYSc
mp-643260,2.2799,-0.327986963,2.730838836,0,-23.10980039,-3.301400056,Na2H4Pd
mp-775274,3.1228,-2.071782299,2.499547908,0.015397271,-165.0100374,-5.893215623,K2CrO4
mp-27047,1.4878,-2.317176583,3.408732697,0.053870115,-97.5362107,-6.096013169,Li2CuPO4
mp-866833,0,-1.100107478,3.418088913,0.387679511,-43.81097048,-4.381097048,CaSnS3
mp-14941,5.2252,-3.269373075,6.146956325,0,-364.9062641,-5.36626859,Al2Pb3F12
mp-568945,0,-0.177455829,9.77530305,0,-79.93575071,-6.661312559,DyCo3
mp-31153,0,-0.912539632,8.466892472,0,-61.67795519,-5.139829599,CaGePt
mp-771328,1.7324,-1.516350155,4.557383695,0.010245045,-153.2816559,-4.257823774,Rb4PbO4
mp-781671,0,-1.830453633,3.081369736,0.028564161,-355.0289132,-6.121188159,Na6Ni2As(CO4)4
mp-34569,1.5821,-2.151372086,4.384032824,0.09267101,-270.1395724,-6.431894581,Mg(FeO2)2
mp-867929,1.7943,-1.881920135,5.205115053,0,-138.4740189,-5.769750786,Sm3SiAgS7
mp-865015,0,-0.582875939,8.891689783,0,-31.60994602,-7.902486505,MnSiRh2
mp-975424,0,0.036558668,2.1854954,0.079943732,-70.60292862,-2.434583746,Rb(Mg4Al3)4
mp-753403,0,-1.591633055,3.069086933,0.019467642,-142.8479182,-6.493087191,LiCu2(CO3)2
mp-977325,0,0.235442736,19.16066873,0.254342594,-41.61029664,-10.40257416,Np3Be
mp-776475,5.2158,-3.41646916,3.745220817,0.029737977,-298.0623819,-7.451559547,Al2O3
mp-753594,2.6481,-2.233932098,8.659973378,0.010915215,-32.49401311,-5.415668852,BiOF
mp-23232,0,-0.35013413,4.425671215,0,-29.49482346,-3.686852933,3-Feb
mp-974415,0,0.989684079,18.77471285,0.989684079,-37.07430722,-9.268576805,Re3Pb
mp-867583,0.2936,-1.406562527,6.420373162,0.043859745,-160.008468,-5.333615601,AgSbO3
mp-561202,1.0127,-0.853893977,2.710107899,0,-177.3516771,-4.030719935,K6NbAs3O
mp-1034,0,-0.097515823,11.43190779,0.00502709,-38.42329496,-6.403882493,Th2Cu
mp-9351,0,-0.776702873,12.04647152,0,-29.50469055,-4.917448425,LuGeAu
mp-763022,1.726,-2.219655307,4.326713214,0.061559691,-144.2620969,-6.010920706,FeOF
mp-772077,2.9223,-1.526692122,4.415582123,0.067461929,-213.3929509,-3.810588409,BaYI5
mp-1018893,0,-0.567910923,7.377525914,0,-29.19220788,-4.86536798,PrCuSn