id,band_gap,formation_energy_per_atom,density,e_above_hull,energy,energy_per_atom,pretty_formula
mp-505600,0,-0.407432917,13.08359095,0.054801994,-219.9711962,-9.165466508,Ta3SiNi2
mp-19239,2.3029,-2.864153007,3.584529596,0,-93.8780255,-6.258535033,Mg6MnO8
mp-570122,0,-0.139019344,6.226883188,0.059161853,-42.45290751,-6.064701073,Cr3Te4
mp-780109,1.9217,-2.549780304,2.979049956,0.056527025,-531.0643629,-7.176545445,Li4Cr5(P3O11)2
mp-21582,0,-1.605984097,5.030461199,0.023768747,-226.3775302,-5.144943868,Nd4In5S13
mp-867859,0,-0.417157041,11.65962479,0.091397588,-29.23117239,-7.307793098,Sm2IrRu
mp-757002,3.8936,-2.782695061,2.395290009,0.031826992,-168.9753525,-7.680697839,KZrPCO7
mp-2050,0,-1.111446773,8.062841178,0,-10.92830155,-5.464150775,HoSb
mp-20241,0,-0.76633279,6.714834918,0,-103.3323288,-6.078372282,Mg4P6Rh7
mp-28514,4.3575,-1.179008224,3.78498699,0.006408864,-82.30437677,-4.572465376,Ba(BrO3)2
mp-556994,5.3498,-3.204257652,2.273371462,0.084893363,-93.96368202,-7.830306835,SiO2
mp-976008,0,-0.082723704,5.398335953,0.006370099,-12.78283858,-3.195709645,NdTmMg2
mp-756935,2.9032,-2.077670018,3.82660669,0.00925248,-148.2967995,-5.296314268,Li3SbO3
mp-2396,0,-0.219458952,10.29407552,0,-38.91285464,-6.485475773,HoCo2
mp-780196,0.4103,-2.581512945,2.984389363,0.100088337,-199.1517612,-7.112562901,LiMnSiO4
mp-16771,3.0277,-1.778378913,3.870590026,0,-175.7697642,-5.49280513,MgSe2O5
mp-634984,0,-0.46902505,5.350037274,0,-161.1479455,-5.198320822,Mg5(Si8Pd5)2
mp-767526,0.1453,-2.14949233,3.094955891,0.010961234,-160.5561428,-6.175236262,Na3CuPCO7
mp-992,0,-0.484077625,4.24589622,0.03555037,-9.51586497,-3.17195499,CaGa2
mp-765902,1.9126,-1.049925518,6.588609373,0.059881293,-94.72236776,-4.736118388,ZnNi4O5
mp-758842,3.1797,-1.501734865,1.91864817,0.051693241,-842.2104681,-6.19272403,NbH14C4NO14
mp-752773,1.0962,-2.712881961,3.308813038,0.104065907,-45.96275315,-4.596275315,Li4CuF5
mp-27742,1.3581,-1.437769358,3.678419709,0,-75.10832068,-3.755416034,K2CdO2
mp-984660,0,-0.465139393,10.07583136,0,-14.12699416,-3.53174854,Dy2InHg
mp-766163,1.1263,-2.255149005,6.388649603,0.013651906,-196.1644783,-6.538815944,TiSn9O20
mp-12788,0,-0.809034783,11.619777,0,-66.10603344,-4.721859531,Nd3Au4
mp-862731,0,-0.337084357,7.584832728,0,-20.21047081,-5.052617703,Pm3Ge
mp-755707,2.8256,-3.264871404,3.235108995,0.003406102,-216.2930381,-8.010853261,K3LiTi7O16
mp-677237,0.1466,-3.931511294,7.758051613,0,-143.2257662,-9.548384415,Y3U2O10
mp-2496,0,-0.169167141,5.248617164,0,-200.7304285,-3.717230158,Cs4Sn23
mp-23197,1.883,-0.62965286,6.979307598,0.051753455,-5.14531413,-2.572657065,TlI
mp-776760,0,-2.697078684,3.458075562,0.084655519,-268.6604687,-7.462790796,Ti3FeSb2(PO4)6
mp-555860,0,-3.206474694,4.918507713,0.000347398,-102.7194067,-8.559950555,EuTiClO3
mp-989563,1.8121,-1.781081145,3.266943876,0.008198091,-31.07233295,-3.107233295,Rb2NaTlCl6
mp-23476,1.7985,-0.855987333,4.179314816,0,-200.4688336,-2.948071083,Cd7(P2Cl3)2
mp-30234,0,-1.802064499,3.698709833,0,-38.49209258,-4.276899176,Cs2WCl6
mp-7618,5.3385,-3.518854074,3.698789507,0.050829954,-52.86539585,-5.286539585,Cs3YF6
mp-18450,0,-0.27620994,8.579620241,0,-86.61206049,-6.662466192,Lu(FeGe)6
mp-557531,3.7117,-2.271540547,6.688812109,0,-102.1159767,-5.673109817,Pb2S(O2F)2
mp-7972,3.5458,-2.971381949,5.277807202,0,-26.28148218,-6.570370545,RbLaO2
mp-557806,0,-2.853945633,7.895992379,0.03829987,-181.6601688,-8.257280401,Er2Tc2O7
mp-559909,0,-2.378553486,5.889382973,0,-163.423493,-6.809312207,Sr3Ru2O7
mp-1020628,4.0962,-2.816614319,3.791706356,0,-169.4741632,-7.061423468,SrGe(PO4)2
mp-962078,0,-0.123513045,4.015647979,0.258292378,-8.71288545,-2.90429515,CaCdSi
mp-754226,3.3369,-3.99368905,6.975116633,0.072834567,-87.28188759,-8.728188759,YLuO3
mp-22981,2.7745,-0.987374457,6.533713479,0,-21.50212627,-4.300425254,TlIO3
mp-555202,5.0309,-2.411477688,3.25282949,0.00225011,-73.38584668,-4.586615418,KTeHOF4
mp-744639,2.1698,-1.322678208,5.262743299,0.016114746,-160.4243436,-5.347478119,Cr2Hg2H2O9
mp-17942,0,-0.563491578,5.590660783,0,-83.29843432,-5.206152145,MgNi2P
mp-559442,0,-1.77244911,6.242350419,0,-192.6429206,-7.134922984,Ba2Ru7O18
mp-7013,5.0933,-3.611493454,6.341466181,0,-189.9265391,-7.913605795,Ho2Be2SiO7
mp-32662,1.4691,-2.184664592,6.116689931,0.004380288,-180.1591804,-7.506632515,WO3
mp-703352,2.5368,-1.904999196,3.411623528,0.07637262,-406.4651934,-6.351018647,UP2H6O7
mp-13510,0,-0.778695152,9.016788437,0,-59.67724993,-5.425204539,Ho4In(NiGe2)2
mp-733844,3.9896,-2.396317989,2.872670681,0,-206.2401556,-6.065886929,Na3GaP2H2O9
mp-4632,5.4085,-3.342152417,4.362246862,0,-93.13105173,-7.163927056,Sr3(PO4)2
mp-558375,0.002,-1.889764834,4.687141733,0,-148.5113738,-6.187973908,Ce3CuSiS7
mp-559584,2.3521,-2.892119728,3.254119865,0.030220145,-84.15380456,-4.675211364,LiCaNiF6
mp-760231,3.0522,-2.53905611,3.696701352,0.01211555,-490.3045714,-6.809785714,LiSn2(PO4)3
mp-7812,3.2779,-2.097868078,3.683087219,0.000645537,-77.47672328,-6.456393607,GeO2
mp-622171,2.5139,-2.03551314,4.951728544,0.034333334,-212.2723154,-6.633509857,VSb2O5
mp-12972,0,-0.722394647,8.18285662,0,-72.09820492,-8.010911658,Zr6Sb2Pt
mp-861991,0,-0.16364118,9.782653634,0,-32.21852737,-8.054631843,PaMn2Al
mp-8187,1.9786,-1.59642124,3.304809625,0,-39.8568641,-3.98568641,K2ZnO2
mp-763965,1.5217,-2.664553496,3.312647704,0.016079731,-159.1552039,-6.631466828,V2(OF)3
mp-560687,0.4605,-0.566063836,4.786195404,0,-324.3751252,-4.268093753,Nb3Te8I7O
mp-773547,2.8501,-2.699439261,3.453368589,0.088089932,-116.4011548,-5.290961584,Li3Fe2OF5
mp-4672,2.177,-1.484110575,3.764529499,0,-262.396773,-5.466599438,TbPS4
mp-557778,3.2071,-3.050222513,3.588317178,0,-745.0661384,-7.761105608,RbNbSiO5
mp-31474,0,-0.212448397,8.476760951,0,-6.07093366,-0.674548184,Rb2Hg7
mp-1009496,0,0.484972046,13.93001147,0.484972046,-18.19921902,-9.09960951,OsN
mp-773116,1.9465,-2.648735875,4.972142481,0.005918545,-671.3263543,-6.713263543,La20S29O
mp-769409,3.5484,-3.430927369,4.886435479,0.019534175,-485.7300846,-8.095501411,Y4Ga2O9
mp-770759,3.7031,-1.985793225,3.533902427,0.063640294,-139.849483,-6.356794683,LiBiCSO7
mp-764036,0.4221,-2.113558471,4.235280831,0.086357237,-202.5950355,-6.753167848,Li3Mn3CrO8
mp-703398,0.2922,-1.171044551,2.19242546,0.090030293,-393.2370377,-5.041500484,CuH20Se2(NO7)2
mp-7128,1.9278,-1.727513582,5.672598191,0,-51.11653123,-5.679614581,Cd(AsO3)2
mp-569265,0,-0.571559868,5.755376448,0.020819723,-26.3121465,-3.289018313,Mg3Pt
mp-3502,3.3008,-1.625467721,5.266316934,0,-133.8306019,-5.147330842,Zn2Te3O8
mp-976159,0,-0.450083864,7.971564284,0.00184794,-16.65514478,-4.163786195,PrErIn2
mp-556920,0,-2.385295066,8.005181976,0,-257.473191,-6.775610291,Tb9(SbO)5
mp-864646,0,-0.319842958,12.67854999,0,-9.2828375,-2.320709375,ErAgHg2
mp-559701,0.1363,-3.158363864,3.439163544,0,-107.3019178,-5.961217656,LiV2F6
mp-849783,2.2379,-0.817856813,1.922770281,0.097344597,-661.2759985,-5.332870955,TeH14C3S3(N3F2)2
mp-8769,0.0475,-0.695180095,3.948904886,0.037327269,-39.19591715,-3.919591715,Rb2CoSe2
mp-1018824,0,-0.564976955,9.620992295,0,-43.81109581,-7.301849302,NpSbTe
mp-978275,1.4635,-0.130536261,2.618327874,0,-197.5932448,-6.1747889,MgB7
mp-606377,0,-0.350830986,7.943525767,0,-57.36357957,-4.097398541,Ce2Zn4Ru
mp-4711,0,-1.668684908,3.586758205,0.016957741,-24.71149249,-4.942298498,Li2CuO2
mp-9755,4.1244,-3.080560373,8.265721921,0,-99.93199404,-8.32766617,HfGeO4
mp-707206,3.6426,-1.550870978,1.960193738,0.039687772,-385.8504343,-5.758961706,TeP6H30(NO4)6
mp-690531,0,-2.696519496,6.042186527,0.06399786,-213.6029725,-7.62867759,La5Mn5O18
mp-753610,3.5646,-1.644898647,4.078876877,0.077644179,-39.7450346,-3.312086217,BaCaI4
mp-770343,2.7009,-2.582114971,2.792099295,0.083515501,-331.2881891,-6.901837273,Li3V(BO3)2
mp-2489,0,-0.122808832,13.80024783,0,-20.76448747,-10.38224374,UC
mp-632623,0,0.706818523,10.72199402,0.706818523,-24.79531796,-6.19882949,MnIn2W
mp-768122,0,-2.082110937,3.55971353,0.068817737,-144.7200821,-6.578185549,NaBiPCO7
mp-756908,3.2842,-1.990612458,3.443772575,0.09631004,-145.8591878,-5.209256708,Li3SbO3
mp-755714,0,-3.100472644,6.60057452,0.018226583,-32.82940558,-8.207351395,SrEuO2
mp-569296,0,-0.54348154,8.59503804,0.09575174,-36.61202165,-7.32240433,Gd(NiSb)2
mp-962062,0.026,-0.206639702,4.519728347,0.408960169,-8.23796357,-2.745987857,BaSrSn
mp-867773,0,-0.30708229,7.269982723,0,-9.26757673,-2.316894183,DyMgCd2
mp-14448,1.1018,-1.061521431,4.9728885,0,-58.54963004,-4.182116431,Ba2SiTe4
mp-779907,3.4271,-2.23632819,2.581187308,0.038821745,-518.1679783,-6.477099728,LiMnPH2O5
mp-775164,2.2504,-2.56396825,4.181526793,0.008238491,-426.0282923,-7.607648077,Li2NbCr3O8
mp-7577,0,-0.614656744,6.633922194,0,-55.05849997,-6.882312496,CoSi
mp-679944,1.5867,-1.085421529,6.090501545,0.023788584,-572.7899593,-6.818928087,Li4Re6S11
mp-28201,0,-0.957536505,5.944628574,0,-146.162812,-5.220100429,Sr4(PPd)5
mp-680172,2.3544,-0.590605796,5.074437756,0.001531203,-125.9427449,-1.908223408,CdI2
mp-24409,3.7095,-0.189528861,2.795230927,0,-42.0499468,-3.504162233,PH4I
mp-7810,0,-0.385910282,10.8706967,0,-161.4687594,-10.09179746,UVC2
mp-562283,1.6616,-1.65744093,8.031141427,0.096222612,-51.77620632,-5.752911813,GePb3O5
mp-675189,0.4372,-1.126021401,6.995848016,0,-106.8257617,-4.85571644,Ho7(CuTe4)3
mp-540310,4.435,-2.610509285,2.647630163,0.033233386,-323.268403,-7.027573979,Li2Mo(PO3)5
mp-864984,0,-0.148264135,6.851727059,0,-36.98992182,-9.247480455,MnV3
mp-10481,0.2562,-0.387829463,6.162883999,0,-36.22872046,-3.019060038,RbAg3Te2
mp-752717,4.5002,-3.792304135,5.033449756,0.009348856,-266.9960371,-8.343626159,La2SiO5
mp-978536,0,-0.470722422,11.19447782,0,-11.78468148,-2.94617037,SmHoHg2
mp-23896,0,-1.625072674,6.575262347,0,-27.78934896,-4.63155816,LuHCl
mp-865973,5.4991,-2.73095196,5.45000413,0,-68.49130365,-4.892235975,PHPb2F10
mp-8046,0,-1.306349189,12.89990343,0.025888779,-98.9413322,-10.99348136,Ta4N5
mp-37836,4.9082,-2.107199591,2.375364137,0.031470934,-81.79391175,-5.842422268,Al(HO)3
mp-758234,3.1945,-2.348913022,6.400809182,0.009139187,-517.6271718,-6.636245793,P2Pb3O8
mp-21017,0,-0.56957191,6.774897435,0,-35.17695751,-7.035391502,Y3PbC
mp-722369,4.6581,-2.535321116,2.43797525,0.004141598,-547.4315404,-6.842894255,Na3B5(HO5)2
mp-9694,0,-0.894342243,9.932220873,0,-62.4758521,-5.679622918,Tm3(GePd)4
mp-867953,3.9865,-1.719868525,3.843077765,0.028278553,-91.33396285,-3.382739365,Ba2CaI6
mp-42599,2.7187,-3.390972707,4.377278344,0.051688626,-359.5831731,-8.172344842,NaYTiNbO6F
mp-631406,0,0.591868736,12.6758061,0.660691407,-21.65858657,-5.414646643,ScTl2W
mp-743571,2.2989,-2.041295356,3.103007197,0.008169243,-340.9455712,-6.556645601,Mn2Si(H2O3)2
mp-570651,0,-0.257165562,4.284977551,0.004258937,-225.1352062,-5.360362053,Al17Mo4
mp-620032,0,-0.829050946,5.914803775,0,-261.2508835,-7.256968985,Ti2Se
mp-752638,2.4611,-1.698799522,3.26548926,0.042745549,-152.4191248,-6.350796868,LiCuCO3
mp-14786,0,-0.218007052,7.169884723,0,-56.14439048,-4.318799268,Ba(Cu2As)4
mp-554433,4.755,-3.242631873,2.382467164,0.003592783,-587.9510537,-7.349388171,KAl(SiO3)2
mp-850445,2.9931,-1.680896801,3.031687394,0.017601042,-422.2910691,-5.149891086,Na3Zn4As3H12O19
mp-673126,4.3239,-2.492388885,3.088508533,0.048468045,-246.508957,-6.847471027,LiSb(PO3)4
mp-8234,0.813,-0.883388631,5.982170076,0.011695469,-29.77078715,-3.721348394,BaTe3
mp-756672,3.836,-2.672228781,4.371518504,0.081947797,-614.1372343,-6.675404721,Li4Si4Bi2O13
mp-764111,3.9641,-2.570055248,3.041386871,0.01027936,-389.2525025,-6.950937545,NaFe(PO3)3
mp-22517,0.5529,-1.442581214,4.780497261,0,-225.7602903,-8.683088089,EuYSi4N7
mp-17077,6.8082,-3.772706574,3.210605733,0,-183.8898242,-5.746557007,K2YF5
mp-19432,3.2404,-2.423854403,2.710598932,0,-133.6803634,-6.68401817,KNaV2O6
mp-779328,0,-1.126259853,5.361459687,0.097816823,-57.94758151,-4.828965126,NaCu2O3
mp-1019581,4.9224,-2.252544633,2.435671087,0,-344.7813087,-6.156809084,CaS3O10
mp-19950,0,-0.808661153,5.979383694,0,-247.5259556,-6.875720989,Dy2Ti3Si4
mp-696794,3.6244,-1.538770498,3.214293201,0,-141.6912912,-5.060403256,RbHSeO4
mp-3718,0.2418,-2.86691354,9.459183491,0,-46.75894962,-7.79315827,ThTeO
mp-18686,0,-0.594813167,6.365250447,0.006479434,-156.6274856,-8.701526979,ZrCr5P3
mp-779511,3.5116,-2.886372812,5.213947529,0.028554477,-141.8040189,-5.908500788,Ba2MgO3
mp-27346,2.4938,-1.504045812,3.666815573,0,-151.9627243,-2.922360083,Al2Hg3Cl8
mp-28567,4.8641,-2.948497457,5.969036579,0,-58.35880572,-4.86323381,LiBiF4
mp-26883,0,-2.88825748,2.793699532,0.065223243,-292.4593752,-7.31148438,Li3Ti2(PO4)3
mp-772867,0,-2.58778645,7.533266319,0.030245596,-302.8009209,-6.881839111,La2Bi2O7
mp-9515,5.5435,-3.2955368,3.868657839,0.099821715,-120.8357878,-7.552236736,Al2SiO5
mp-18684,7.221,-3.109470355,2.55438984,0.001084032,-159.6767692,-4.989899039,KPF6
mp-15901,0,-3.234166702,7.001145588,0.045313366,-100.8483579,-8.404029823,Li2LaTa2O7
mp-972367,0,-3.2407078,9.726485172,0.191127646,-43.92428398,-8.784856796,UAlO3
mp-19361,2.6812,-2.144653283,2.933526357,0,-225.6335029,-6.636279496,Cr2(SO4)3
mp-15701,3.4803,-1.335448502,3.086517249,0.029372648,-56.55278102,-7.069097628,MgSiN2
mp-559779,2.5583,-2.161932873,4.2104229,0,-524.3378214,-5.958384334,Nd3SiS6Cl
mp-777698,1.4398,-2.450874482,4.713662832,0.086791043,-119.184086,-7.945605733,V2O3
mp-10209,0,-0.750473831,5.216063978,0,-52.42447536,-5.824941707,Y3Al3NiGe2
mp-764701,0.4565,-2.054647798,3.505202125,0.033089762,-142.176828,-6.181601218,Li8Mn5O10
mp-763206,0.8457,-2.14049659,4.501112727,0.041239507,-92.60323638,-5.144624243,Co3OF5
mp-556185,3.4609,-2.782948955,3.65198219,0,-79.2580013,-6.604833442,RbNaTiO3
mp-573119,0.3672,-1.366589912,9.498987822,0.062083406,-123.029512,-6.151475598,BiRhO3
mp-2611,0,-0.504927543,5.404477254,0.022719029,-25.3697374,-4.228289567,BaGe2
mp-680171,0,-1.48686089,4.174472344,0.046682685,-245.7840369,-6.144600923,KEu2CuS6
mp-776684,4.07,-3.045071283,2.951219268,0.005806992,-201.6990498,-5.042476245,Li3FeF6
mp-21158,0,-0.778904512,7.296182535,0,-51.59184569,-5.732427299,CeAlPd
mp-22779,0,-0.999228352,12.23983096,0,-43.77824778,-4.864249753,YbSnPt
mp-676564,0,-4.262512519,9.532745811,0.007074171,-283.8579098,-9.461930326,NdTh9O20
mp-891956,2.3503,-3.037742444,3.011925668,0,-294.614,-7.185707316,Ca10V6O25
mp-2967,0,-0.479120698,6.959061334,0,-34.89923689,-6.979847378,La(CoB)2
mp-27384,2.438,-0.733315851,5.65583461,0,-165.5484612,-4.138711529,AgIO3
mp-567753,1.223,-1.420254676,5.944821845,0,-128.7160326,-5.363168026,La3CuSnSe7
mp-774243,1.3688,-2.19965092,5.042598958,0.089207213,-183.3771646,-6.549184451,LiCrSnO4
mp-684588,0,0.175418447,4.208191587,0.200384216,-32.4394406,-4.6342058,Sn3P4
mp-21048,0,-0.547453415,5.669873427,0,-64.56562015,-8.070702519,CrP
mp-776523,2.5061,-2.979958974,2.828048178,0.036913968,-277.4839522,-7.302209269,NaLi3Ti2Al2(PO4)6
mp-675930,0.0998,-0.432994248,4.898834251,0.007467877,-52.80574945,-3.771839246,In3AsSe3
mp-983908,0,-0.611449764,11.00475267,0.01006666,-16.1270699,-4.031767475,Er2ZnAu
mp-980200,0,-0.31415167,8.778304909,0.017208409,-24.84405015,-3.105506269,Zn3Rh
mp-13068,4.0808,-4.049782151,10.39274266,0.092821871,-41.97989397,-8.395978794,Lu2O3
mp-2333,0,-0.782605789,10.32829242,0,-23.42994458,-5.857486145,NdPd3
mp-867767,0,-0.822696129,8.508802179,0,-27.13947803,-6.784869508,BeSiRh2
mp-23318,1.9601,-1.059178182,5.400460924,0,-47.17619597,-3.931349664,BiSCl
mp-6127,0.8549,-3.029313434,3.355951585,0.013905634,-473.8332858,-7.403645091,BaCu(Si2O5)2
mp-4428,4.726,-3.445829719,2.965709628,0.023036439,-224.0160368,-7.467201226,CaSiO3
mp-775327,1.5658,-2.450390691,3.778630353,0.0076537,-406.4110065,-7.257339402,Li2MnV3O8
mp-6621,0.0787,-2.883581566,7.136040874,0,-71.87692444,-7.187692444,Ba2ErRuO6
mp-975359,0,-0.266798124,5.636026593,0,-28.56586832,-5.713173664,Rb(FeAs)2
mp-2643,0,-0.125754371,6.748304423,0,-40.96883174,-5.852690249,Ti3Cu4
mp-569264,0,-0.253010705,17.04231146,0.09443159,-50.60229425,-8.433715708,NdIr5
mp-21023,0,-0.78033309,5.90654193,0,-101.6674504,-8.472287534,Ti3SnC2
mp-765463,5.8794,-2.179493409,3.377222779,0.00830589,-467.2289354,-6.14774915,ErH3(SO4)3
mp-557171,0.8702,-2.475644086,2.792400351,0,-252.3389853,-6.640499613,Na2Cu(PO3)4
mp-570777,0,-0.420368062,3.408581811,0.048946197,-79.5010665,-3.975053325,SrSi
mp-17539,3.715,-2.605685026,3.114058976,0,-135.6263479,-4.84379814,KAsOF4
mp-865977,0,-0.27419667,10.06403439,0,-12.194737,-3.04868425,LuCdAg2
mp-26446,0,-2.263663429,3.557818266,0.088739105,-251.9871205,-6.631240014,Sn4(PO4)3
mp-861624,0,-0.470640874,8.882316984,0,-9.32450858,-2.331127145,LiLaHg2
mp-999208,0,-0.279819961,4.378609213,0.272161567,-28.36892038,-7.092230095,Sc2MnSi
mp-22924,0,-0.287085775,6.627665472,0,-5.81081801,-2.905409005,NaBi
mp-19514,1.9683,-2.801728837,4.486701436,0,-380.0765857,-6.787081887,Sr2CrO4
mp-753315,3.1534,-2.718782784,4.290882977,0.032871653,-44.74175474,-5.592719343,Mg3ZnO4
mp-989504,2.73,-1.867897265,2.749666365,0.087801189,-39.73952134,-3.973952134,Na2LiNF6
mp-23227,0.4302,-0.212614785,4.865375526,0.041426565,-12.30707324,-3.07676831,CuBr
mp-622108,0,-2.210191482,7.03532618,0.032050394,-78.94263801,-6.072510616,Ba2TmCu3O7
mp-570749,0,-0.494091203,12.52730514,0.019946636,-3.61849237,-1.206164123,YbHg2
mp-768592,1.8592,-2.46437968,3.070562334,0.094121007,-155.8639679,-6.494331994,Na2SnBPO7
mp-568231,1.2465,-1.210605721,3.803881695,0,-126.6951281,-4.223170935,RbMnBr3
mp-28345,0.2892,-0.955996286,5.056100784,0.002390782,-96.90324565,-5.100170824,Zr6CI12
mp-769377,1.8163,-2.042552236,2.848141791,0.056342841,-188.5681842,-5.238005116,SbSO4F3
mp-1016107,0,-0.52306211,11.40830584,0,-656.9168595,-6.316508264,Hf6Zn6N
mp-769383,3.4048,-2.201737786,3.672897666,0.096077159,-196.801492,-6.560049735,RbB3Te2O9
mp-569247,0,-0.656012484,6.202993692,0.001928828,-39.59788045,-7.91957609,Zr(FeSi)2
mp-2384,0,-1.57775508,5.093162623,0,-13.49189604,-6.74594802,LaP
mp-780496,1.4093,-2.548670387,4.163740387,0.036957184,-102.8953839,-5.716410217,Fe3OF5
mp-499,0,-0.459432218,6.785692207,0.000225595,-15.9479064,-3.9869766,AgO
mp-760491,1.8325,-3.903085177,6.23622015,0.058542988,-149.5150763,-8.795004491,Ce4Y2O11
mp-756522,0,-2.043869168,3.978374506,0.051952814,-152.7980953,-6.366587304,CuTe(PO4)2
mp-779884,2.4118,-2.855483174,6.156715928,0.020016388,-312.4731754,-7.101663076,Sr5W3O14
mp-779282,0.5129,-1.823758048,5.685168645,0.074305117,-563.3913733,-5.216586789,Li9Bi5O13
mp-27980,2.0472,-3.690738815,5.908726245,0,-41.04102095,-8.20820419,U(OF)2
mp-561469,1.2026,-2.118485361,5.59987056,0.02837215,-388.8732407,-6.944165012,Nd6S4N3Cl
mp-557830,0.91,-1.463171687,7.946604727,0.069268002,-199.464957,-5.249077817,Na2Bi5AuO11
mp-567873,1.857,-1.141342981,4.685834891,0,-129.2121052,-4.614718042,RbSmGeSe4
mp-1006330,0,0.153188145,8.33070287,0.206478664,-21.28950938,-5.322377345,Ce3Cu
mp-973957,0,-0.279641957,6.800194381,0.01533632,-15.07325129,-3.768312823,La2ZnAg
mp-769384,4.9346,-3.216929117,3.437501773,0.055421034,-255.8919736,-5.815726673,Li3NbOF6
mp-639511,5.6509,-3.277555788,1.595863615,0.011595228,-758.7460772,-7.903604971,SiO2
mp-780412,0,-2.176160613,4.011503252,0.060942803,-355.840296,-6.135177517,Na6Bi2B4AsO16
mp-768878,1,-1.769211502,5.528130266,0.022770284,-264.3844755,-7.344013209,CuReO4
mp-865108,0,-0.356468884,9.297065531,0,-8.08800707,-2.022001768,NaSmHg2
mp-864841,0,-0.336795806,8.251183987,0,-254.3684555,-9.084587695,Nb4Ni2C
mp-768292,2.3309,-2.245480016,5.788236491,0.090152148,-197.0488709,-6.157777215,Li2BiBO4
mp-8066,0,0.076888842,7.979622354,0.076888843,-99.82897911,-4.159540796,Cu3As
mp-553374,2.5747,-1.82082275,4.487848436,0,-52.99737886,-4.817943533,Cs4Sb2O5
mp-558239,1.517,-3.358214939,6.138319153,0.005692309,-878.7830307,-8.449836833,Rb4U5O17
mp-9639,0.3563,-1.745595644,4.289259264,0,-111.6346647,-5.581733235,BaCu(SeO3)2
mp-863671,0,-0.202489396,8.863994841,0,-23.66819376,-5.91704844,Pm2CuRu
mp-625961,2.0928,-1.064353755,3.140662775,0.032790263,-223.393915,-4.654039896,H5IO6
mp-559123,4.0729,-2.974408536,4.066697847,0.007715514,-259.0202794,-8.634009313,YSiNO2