id,band_gap,formation_energy_per_atom,density,e_above_hull,energy,energy_per_atom,pretty_formula
mp-752605,0.3348,-2.096730659714,4.085859570177287,0.05067034300000106,-77.94702244,-3.897351122,LiAgF3
mp-775028,,,,,,,
mp-770980,,,,,,,
mp-35208,5.265700000000001,-4.118426269146667,6.5853853277777015,0.054310646666666074,-22.78963762,-7.5965458733333335,NdOF
mp-3719,2.4442,-1.5660871431250003,2.9254680436228013,0.0,-157.85425548,-4.93294548375,Rb3NbS4
mp-567855,2.2086,-0.803979863,4.346850743184931,0.00432367683333279,-56.75988885,-2.8379944425000003,RbGeI3
mp-765545,,,,,,,
mp-6174,4.8175,-3.34308868928161,2.424740998336446,0.0,-437.32919771,-7.540158581206897,Mg2Al4Si5O18
mp-559558,1.7894,-0.5921025701050716,2.498780535763722,0.0,-368.18180174,-4.602272521750001,Cu3P8(S2Cl)3
mp-541250,,,,,,,
mp-764187,,,,,,,
mp-568883,2.0857,-1.695248648536389,5.840946214598439,0.0,-395.23539267,-7.319173938333334,Pr3SiSe2N3
mp-608516,4.491,-1.9278065343285056,2.6943655397300166,0.0,-82.02294162,-3.4176225675,CsGaCl4
mp-36100,2.084,-2.455311965595239,5.069934785924061,0.01413089928571587,-85.02794183,-6.073424416428572,Ca(SmS2)2
mp-752755,1.7037000000000004,-2.0203103902500006,4.984972373110278,0.051565080500000526,-113.11908379,-5.6559541895,NaSbO3
mp-767416,0.4485000000000001,-2.183873810101649,3.5338824411110688,0.08739042121794771,-159.93537343,-6.151360516538461,K3BiPCO7
mp-721988,4.8757,-3.2238139234615386,2.5049217901910223,0.0,-194.40575111,-7.477144273461539,NaAlSi3O8
mp-23370,2.0637999999999996,-0.45968538284090826,5.969061803842213,0.0,-475.90888857,-5.408055551931818,CuW3Br7
mp-11016,2.321,-1.1483842374672717,3.352331286838625,0.03788560408885022,-63.85037284,-5.804579349090909,RbCd(NO2)3
mp-562121,,,,,,,
mp-767806,,,,,,,
mp-17808,2.5331,-2.337122041083333,5.698955004516692,0.047342647333333154,-197.01654467,-6.567218155666667,Nb2Zn4O9
mp-752637,4.3866000000000005,-3.1520223837500008,5.910409286378534,0.03173410000000043,-39.84213606,-6.6403560100000005,HoBrO
mp-18966,1.1605999999999996,-1.3400056789583328,6.27292792867273,0.008784363125000638,-44.8403595,-5.6050449375,FeAgO2
mp-555911,4.6463,-2.4946057633925003,4.874600708939336,0.0,-35.50030789,-4.43753848625,TlAsF6
mp-605691,4.4848,-2.314844325643665,3.2644466667752936,0.061826061498925,-297.46753614,-6.4666855682608695,La2P3H7O11
mp-767477,,,,,,,
mp-4324,1.1768,-2.055465469880953,5.491390122978559,0.0,-76.27307466,-5.448076761428572,Tm2CdS4
mp-23780,5.1855,-2.1852738348121425,2.3169929511730536,0.0,-314.72617139,-5.620110203392857,Na3H(SO4)2
mp-767016,,,,,,,
mp-623984,3.857,-1.9868728755208334,5.254635408458413,0.04469318166666714,-144.35791418,-6.014913090833333,PbSO4
mp-770854,1.0328,-2.01589617185606,4.74588866075361,0.07312837329545285,-255.79651956,-5.813557262727273,Li10Fe3Sb7O24
mp-27653,4.6253,-0.24123116269111122,0.9068976268720709,0.013092192777777178,-80.24332922,-3.3434720508333338,LiAlH4
mp-541299,3.7527,-3.122420165183674,3.313366120394277,0.0,-278.7573975,-7.964497071428572,Zr4Cd(PO4)6
mp-771728,,,,,,,
mp-868632,0.46620000000000006,-2.3795391210183907,3.775168603633936,0.026665937083330427,-81.14275714,-6.761896428333333,MnOF
mp-773389,,,,,,,
mp-19403,2.2616999999999994,-2.9448253212499997,5.478714138725438,0.0,-68.07428556,-6.8074285560000005,Ba2CaMoO6
mp-19491,3.8444,-2.8793838682417583,4.438469738451535,0.017296064230769126,-358.71059688,-6.89828070923077,Ba2Ni(PO4)2
mp-30198,3.2427,-2.771550027083333,5.541195676584278,0.0,-476.89123076,-6.113990137948718,Ba4Ga2O7
mp-761348,,,,,,,
mp-766269,4.5292,-0.955473326402589,2.0072431798001604,0.09042151635965823,-404.63771117,-6.32246423703125,ZnPH5C2N4O3
mp-16337,0.6610999999999998,-0.30046091714285694,5.979166045196564,0.0,-21.036239,-3.0051769999999998,Ga2HgTe4
mp-560303,4.7555,-3.047353773067692,3.4736300104097606,0.006087935000003597,-184.60425614,-7.100163697692308,BaCa2C2(O3F)2
mp-765019,,,,,,,
mp-560616,2.7324,-1.914243951375,2.286551372501197,0.013345241562500831,-105.94190204,-6.6213688775,KCO2
mp-19696,,,,,,,
mp-765863,,,,,,,
mp-581749,1.2526999999999995,-1.0982706155742228,6.733172482855484,0.0,-103.40734667,-4.700333939545454,CsTm2Cu3Se5
mp-560831,2.3306999999999998,-1.0584531701477833,3.332101702629576,0.0,-126.92722993,-4.376801032068966,Na6P4Pb3S16
mp-23086,4.3499,-2.4996770811422913,4.894251742853185,0.0,-148.20898459,-6.175374357916667,ErSeClO3
mp-24961,,,,,,,
mp-767744,,,,,,,
mp-31971,,,,,,,
mp-767854,,,,,,,
mp-756241,0.7491999999999996,-2.416637751666667,7.526869845223223,0.0,-160.59921564,-6.691633985,PrBiO4
mp-28473,6.605700000000001,-1.7997746103660006,1.9182719338968748,0.011817544812499747,-47.4822885,-4.74822885,CClF3
mp-771005,2.6285,-3.4978039247115364,9.25503559476297,0.04483797999999872,-495.1068904,-9.521286353846154,LuTa3O9
mp-27400,2.754,-1.2507192625,4.305013665656813,0.0,-52.20445114,-2.610222557,RbCdBr3
mp-770850,0.7171000000000003,-1.9692237039583333,4.642212169749031,0.388592870000001,-126.20419704,-6.310209852,Li2TiCo2O5
mp-540203,,,,,,,
mp-643788,3.2567,-1.6005475492813332,2.568479044826461,0.0673733366666669,-75.53736701,-5.035824467333333,Na2Sn(HO)6
mp-650741,0.7570999999999999,-1.6870346508173077,5.092438383969149,0.03199446063186695,-338.01843254,-6.500354471923076,Cu4Mo5O17
mp-504957,1.0283,-1.5069676881455554,3.991810876262488,0.0,-164.89362776,-4.580378548888889,RbReCl4
mp-541484,,,,,,,
mp-5246,2.0659,-2.8653645873499998,4.36049983077561,0.00013375199999288157,-38.27552333,-7.655104666,KNbO3
mp-632667,0.6241999999999999,-0.6687306996355554,9.20493271041936,0.03539175666666683,-20.05052139,-3.341753565,YbH2
mp-721098,,,,,,,
mp-505368,3.3085,-1.7446754442307695,7.07854533100684,0.0,-154.20177859,-5.930837638076923,As2Pb3O8
mp-767881,,,,,,,
mp-764432,,,,,,,
mp-36903,2.9593,-1.5051677668259997,1.9442168289918025,0.00749915049999661,-58.65141275,-5.865141275,KNO3
mp-775050,,,,,,,
mp-27805,2.8128000000000006,-2.094147559791667,3.9580124119960227,0.0,-189.57032207,-5.265842279722222,Ba3SiS5
mp-775978,0.42920000000000025,-1.9103211877083344,2.930651055415324,0.0745906184876528,-693.58511962,-6.422084440925926,Na4Sb2C4SO16
mp-560501,1.7412,-1.916790152656251,5.388242051354267,0.0,-141.47621305,-5.894842210416667,Tb3CuSiS7
mp-560032,2.6826000000000003,-2.5878617883333326,4.147068890856164,0.0,-364.77202542,-7.599417196249999,NaNb2AsO8
mp-704946,2.4057999999999997,-2.233934228571428,5.216650327486953,0.14899626440003289,-336.08501878,-6.721700375599999,Fe2P4Pb3O16
mp-761519,,,,,,,
mp-10437,0.37930000000000064,-0.8481471389374995,6.405963345675646,0.03726376699999978,-21.34994282,-4.269988564,Ba(CuSe)2
mp-23199,5.1132,-2.931357555506667,3.7410651477044436,0.024002033333330175,-52.8829818,-4.406915150000001,BaCl2
mp-763059,1.8887999999999998,-2.053106304416667,2.885163896486711,0.0963227929999988,-73.76787452,-7.376787452,LiV(CO3)2
mp-643026,4.999099999999999,-1.875781290574074,2.604580805176917,0.010598891666673715,-85.05898481,-4.725499156111111,SrH4(ClO)2
mp-777463,0.29469999999999996,-2.5970486722748145,3.1398619053396732,0.09011929541666674,-41.4508816,-4.605653511111111,Li2FeF6
mp-764503,,,,,,,
mp-997618,0.7525999999999993,0.37150473833333386,5.974007100342774,0.37150473833333386,-10.06538075,-5.032690375,BSb
mp-684427,4.5309,-2.5147947906084656,3.122563892597193,0.017416951111116852,-495.62143096,-6.8836309855555555,LiSb(PO3)4
mp-554523,2.7387,-1.5817976567200003,3.319048023556981,0.0,-161.75180445,-4.043795111250001,TeBrO3F5
mp-771660,0.8082,-2.395994303900803,3.070461497944615,0.0,-287.94811745,-7.198702936249999,MnP2O7
mp-570948,2.1317000000000004,-0.8515685042853335,3.989602514309488,0.0,-108.39704962,-5.419852481,LiCaGaN2
mp-540498,,,,,,,
mp-24316,4.3673,-1.3774244528748056,2.8022037024284754,0.08486131871210922,-113.65210401,-5.166004727727273,CdP2(HO)4
mp-763350,0.5655000000000001,-2.386200777493334,4.321402521555049,0.22699724888890138,-132.65150597,-7.369528109444444,V3O5F
mp-770754,5.7915,-1.10743168279875,3.1935011886838782,0.0,-154.0217087,-4.813178396875,Ho(ClO4)3
mp-780519,1.161,-1.6980664530288887,4.22064001600611,0.7522728205555644,-93.33004134,-5.185002296666666,Fe3(OF2)2
mp-770325,,,,,,,
mp-14708,3.7188000000000003,-3.097335631628789,6.9078329754692716,0.0,-327.90196113,-7.452317298409091,Tm2Ge2O7
mp-29291,2.3164,-1.4799926957627272,3.6485622752782305,0.03714241238636218,-162.35293997,-3.689839544772727,I2(OF2)3
mp-570000,0.9694,-1.022299555642857,3.660820256659751,0.02890820458333332,-108.13399952,-3.8619285542857145,K3Mo2Br9
mp-767589,1.9594,-3.0404406810880955,2.8147179916810843,0.0783530555357137,-150.78045784,-5.385016351428571,LiVF5
mp-27283,3.4393000000000002,-1.5029074564125002,5.6520953132059235,0.0,-112.31738622,-3.509918319375,TlPb2Cl5
mp-566662,,,,,,,
mp-619752,,,,,,,
mp-773216,,,,,,,
mp-540432,,,,,,,
mp-16363,0.8489999999999993,-0.6665316543749995,6.329347241300669,0.004017433333334708,-68.95764274,-5.746470228333333,CoAsS
mp-27339,4.0194,-1.911617219080883,3.7308955047427466,0.0,-408.48978848,-6.007202771764706,Sb2(SO4)3
mp-626412,2.7719000000000005,-1.6220767442299997,4.165267769209613,0.0,-146.24970932,-5.223203904285714,In(HO)3
mp-676609,0.7483999999999997,-0.3241521494117646,5.259513639316699,0.0019663985294142705,-118.20886068,-3.4767311964705883,Ga6SnTe10
mp-776794,,,,,,,
mp-676378,2.4,-3.21611042493421,5.631008515391585,0.14607619394737092,-283.32172062,-7.455834753157895,Sr6Ta2O11
mp-972439,3.0022,-2.343324653626373,4.242996357563343,0.03960596769230751,-158.06699557,-6.079499829615385,Zn3(PO4)2
mp-18727,3.0338000000000003,-2.935541956166665,3.2880256343045646,1.344608973805558,-300.90065603,-7.52251640075,LiCr(SiO3)2
mp-574928,6.4276,-2.0024260174780517,2.9177440963087204,0.008531707980147907,-192.82911566,-5.356364323888889,CsPH3O3F
mp-653560,,,,,,,
mp-18341,2.2839,-2.9432625159255554,6.388294154607787,0.0,-188.28618436,-5.230171787777778,ErPtF7
mp-776567,2.5131,-2.994289944067459,2.8546495203896476,0.03807874958335056,-552.74956355,-7.677077271527777,NaTi2(PO4)3
mp-555344,4.8994,-3.408807175260989,5.397473240326168,0.0,-226.53284752,-8.712801827692306,Hf2P2O9
mp-555363,2.87,-2.635125013863636,3.640887204334535,0.019834501454539577,-413.02678839,-6.257981642272727,Na2Cd(SiO3)2
mp-504533,,,,,,,
mp-770720,4.0617,-2.673762510462962,2.9979017669984867,0.06447290916667026,-228.91966605,-6.3588796125,Li4ZrO4
mp-25626,,,,,,,
mp-23951,4.3384,-0.3734714155415761,2.428312195775587,0.052867342647782145,-66.53416838,-4.752440598571428,Cs(BH)3
mp-770862,2.451,-1.8736812206439402,2.659809370866356,0.03353342844696883,-277.71236942,-6.311644759545455,Li2Cr2O7
mp-767869,,,,,,,
mp-28109,3.495,-1.7090506272499995,4.536995751401559,0.0,-120.27902875,-6.013951437499999,SbAsO3
mp-752538,2.2088,-1.9097672563749999,4.314933205625672,0.018267621640625897,-84.93237556,-5.3082734725,KSnO2
mp-765042,,,,,,,
mp-763111,,,,,,,
mp-851033,2.0078,-2.3034204741366673,4.189707778211667,0.08441456300000105,-207.97798847,-5.199449711750001,LiCo3OF5
mp-36526,4.2614,-4.174940373313334,8.15473492976676,0.0,-22.31221173,-7.4374039100000005,AcOF
mp-11919,1.8506,-1.208472016285333,3.682290575940407,0.0,-62.23122288,-6.223122288,Sr(BeN)2
mp-754009,3.1063,-2.7936984587499993,7.084729655165272,0.02142631124999994,-73.84874837,-7.384874837,ScBiO3
mp-555978,1.7942,-1.8408560051562504,5.225676150324789,0.0,-138.54193372,-5.7725805716666665,Sm3CuGeS7
mp-758316,1.2729,-2.904101766083334,6.930129549806286,0.0,-325.76894922,-7.239309982666668,La10Bi8O27
mp-571093,0.7232000000000003,-0.47215717340499985,3.7511076573177324,0.0,-16.21630267,-4.0540756675,BaAlSiH
mp-763266,,,,,,,
mp-707900,5.2027,-1.4941836662347834,2.4177989020273642,0.00887843252716003,-519.78609785,-5.649848889673914,PrH20S4N5O16
mp-5782,1.9002999999999997,-1.0891341573958337,3.801892948658958,0.0,-35.7612425,-4.4701553125,AlAgS2
mp-770469,3.8996000000000004,-2.633522590416666,4.1533258227050895,0.02765214136364147,-143.19893477,-6.509042489545454,Li5TaO5
mp-35714,1.4125999999999994,-2.362621641428572,5.578488174717593,0.010963068749997085,-87.90231036,-6.278736454285714,La5TlS8
mp-754363,3.449,-3.5450947535714286,7.165757046133866,0.0,-55.59345158,-7.941921654285714,Ba2HfO4
mp-23167,2.1809,-1.26797098163,6.709635784864695,0.04686129500000025,-6.15144586,-3.07572293,TlCl
mp-29415,1.828,-1.0009616726216326,4.122861002120425,0.0,-37.80035768,-2.7000255485714284,Cd3PCl3
mp-775438,1.5533,-3.0597007068375,3.2543251714905876,0.0011795384375004048,-202.50693653,-6.3283417665625,V2OF5
mp-644223,6.6978,-0.38576692574666654,0.7125420678764679,0.04709328833333304,-47.72372339,-3.976976949166667,LiBH4
mp-849360,,,,,,,
mp-763270,,,,,,,
mp-566838,,,,,,,
mp-6795,3.3703,-3.26892084042763,7.8473225853410975,0.0096649535526252,-264.66993431,-6.964998271315789,Ba5Ho8Zn4O21
mp-557084,0.6349000000000005,-3.082630076509286,3.5014050377506476,0.033696914107138376,-392.61887704,-7.011051375714286,Al2CuSi2O7F2
mp-566429,,,,,,,
mp-554395,2.2479,-1.5899917466666673,2.1309234523096796,0.0,-168.96351928,-4.693431091111112,Na5Li3(TiS4)2
mp-771797,,,,,,,
mp-3070,3.8440000000000003,-2.0849589164583335,2.4404390373388156,0.005817025694444311,-74.19593147,-6.182994289166667,Na2CO3
mp-25122,,,,,,,
mp-14161,4.3936,-3.3158060155478393,3.178761207118763,0.0046412363888812536,-190.16177978,-7.04302888074074,Sr4Al6SO16
mp-761528,,,,,,,
mp-573568,0.22079999999999989,-0.7230466828888886,4.137562272528818,0.0,-56.46578468,-3.136988037777778,K2TcI6
mp-764296,,,,,,,
mp-36866,2.6763,-2.8367668857142863,5.023274342182753,0.024201193928605313,-90.47476903,-6.462483502142858,Al2CdO4
mp-556589,4.7139999999999995,-1.3318904729632508,1.7913283116491647,0.06474326249999951,-427.77950038,-5.34724375475,GaH20C2S2NO14
mp-3934,1.0202,-0.600182428258929,4.15362924087125,0.0,-72.80864953,-4.550540595625,Cu3PS4
mp-23704,4.6558,-0.234681867413333,1.3018057642623797,0.0,-38.84967337,-3.237472780833333,NaAlH4
mp-675250,3.5889,-2.775588650133,5.4636170775741295,0.10548642154999843,-93.16593829,-4.6582969145,KBi2F7
mp-23730,3.103,-0.29544654683866617,1.4988085550271355,0.0,-56.42224656,-2.821112328,NaMgH3
mp-32456,,,,,,,
mp-31012,1.0995000000000001,-1.1683075607857145,3.959539785603771,0.0,-127.22671545,-4.543811266071429,K2(NbBr3)3
mp-4431,1.1846,-0.3822958470535716,5.125111558609887,0.0019180603571422594,-52.50227152,-3.7501622514285713,Ag3AsS3
mp-540112,,,,,,,
mp-585227,,,,,,,
mp-775722,,,,,,,
mp-640524,,,,,,,
mp-775044,,,,,,,
mp-699447,5.2524999999999995,-1.5911748446660416,2.340118832073427,0.05273857804513238,-358.52847203,-5.60200737546875,RbLiH4S2(NO3)2
mp-868636,,,,,,,
mp-31614,0.7221,-2.244758948241758,3.2213694308648906,0.09224656550319477,-338.75449109,-6.514509444038461,Li3Co3(PO4)4
mp-546350,1.3567999999999998,-2.3712675785416666,8.659404844991295,0.0,-49.8376202,-6.229702525,TmBi2BrO4
mp-7427,0.29879999999999995,-0.6779727235000003,5.7823644488202355,0.0,-68.57908711,-3.4289543555,Ba(ZnAs)2
mp-14635,1.0457999999999998,-0.8685531097135417,4.081238545829805,0.0,-69.61604832,-4.35100302,Rb2VAgSe4
mp-778571,,,,,,,
mp-558836,4.2539,-2.6574759695914287,2.471964382408305,0.0050900325000000635,-34.44026773,-4.920038247142857,MoF6
mp-767301,,,,,,,
mp-775215,1.6327000000000003,-1.5588069493137255,4.184958317293159,0.5276276319485271,-187.37998944,-5.51117616,Li10Cr3Fe3(NiO8)2
mp-27998,2.4769,-2.9989027627499993,3.886866253341283,0.0,-202.73294194,-8.447205914166666,KNb3O8
mp-3556,3.0985,-3.6640895644583322,8.43009525411776,0.0,-39.23488542,-7.846977084,Tm2SO2
mp-767916,,,,,,,
mp-768027,0.7405,-2.1188990569113844,2.7009068959708338,0.19737004104162814,-319.5672199,-6.657650414583333,Na2MnPCO7
mp-770380,2.8602,-3.048770553942307,8.176172048204345,0.05853149500000043,-232.34004398,-8.936155537692308,Ta3InO9
mp-504864,1.4593000000000003,-2.371548129444444,6.551462692528202,0.029933728124996506,-90.20343557,-7.516952964166666,YCu(WO4)2
mp-675682,4.052200000000001,-3.2572617637455545,3.58683295895277,0.04218306685184903,-200.78485597,-7.436476147037037,Al11NO15
mp-757001,4.0571,-3.986411796333333,5.125219743595274,0.0014669354687502079,-362.81862135,-9.07046553375,Y15TmO24
mp-17621,4.2592,-2.3679758771551724,4.72073919714974,0.0,-178.12178678,-7.421741115833334,CsReO4
mp-766842,,,,,,,
mp-779090,1.1422999999999999,-2.407858742589165,3.4441707554584093,0.06903193437499233,-161.66203327,-6.7359180529166665,VO2F
mp-765056,,,,,,,
mp-776226,2.0272999999999994,-2.5407854904519978,10.397369019411364,0.0057078395000011994,-422.15125469,-10.55378136725,Hf2N2O
mp-28926,1.4765000000000001,-1.1526343187907686,5.319865870953834,0.0,-176.1680782,-6.775695315384615,Ba5(TiN3)2
mp-561443,1.9850000000000003,-1.656076793241759,3.515520435419048,0.010887786538463118,-65.89640146,-5.068953958461539,Ba3(PS4)2
mp-560633,3.959,-2.072893639331,2.2902291427461576,0.0,-175.92461745,-4.39811543625,Al2SnCl6O
mp-762585,,,,,,,
mp-541975,1.6649000000000003,-1.3159121827734381,3.439397903245431,0.0,-343.65856095,-5.36966501484375,Rb3Ta2S11
mp-714882,,,,,,,
mp-29149,1.7866000000000002,-1.0247497887177779,1.6644224216409962,0.0,-22.99051331,-3.8317522183333335,Li4NCl
mp-758948,4.0427,-1.6737199773388047,3.106413123082324,0.0,-162.07157401,-5.402385800333334,Cs2H6CO6
mp-625147,3.0714000000000006,-2.9833181165300005,6.63732926274787,0.0,-75.48092461,-9.43511557625,GdHO2
mp-762786,,,,,,,
mp-762631,,,,,,,
mp-27125,2.5589,-1.9895261950490117,2.177511637732808,0.0,-56.90874524,-3.7939163493333337,Na6MnCl8
mp-3487,5.4612,-3.2954881170879124,3.3582342264187006,0.04133464532051523,-93.6316292,-7.2024330153846154,Ca3(PO4)2
mp-767895,,,,,,,
mp-19185,2.0333,-2.448109751001107,3.9380481588328387,0.0,-176.40910063,-8.01859548318182,Mn3(BO3)2
mp-740722,3.8724000000000003,-1.606026443534167,2.228588492994217,0.008742605052088237,-967.57526227,-5.039454490989583,Na3GeH11O9
mp-849673,,,,,,,
mp-531661,1.1719999999999997,-3.5618087730942616,5.362728257724282,0.15794706499998767,-525.27335462,-8.611038600327868,Nd10Ti12O39
mp-772156,3.5785,-2.864840540833333,6.376963070362456,0.0,-86.79527596,-7.232939663333333,ErAsO4
mp-760762,3.6441,-3.314662858964,3.713578354668252,0.0,-140.72774082,-7.036387041,NbOF3
mp-569571,0.8429000000000002,-0.39548354300000027,7.891227143103929,0.0,-116.46650874,-5.823325436999999,Nb3Sb2Te5
mp-541671,,,,,,,
mp-559053,4.1813,-2.195453763302082,3.930354232549013,0.0,-248.79460425,-6.219865106249999,NaY(SeO3)2
mp-771424,,,,,,,
mp-561442,3.3496,-4.007099300037879,7.3669937107892585,0.00029495624999853476,-213.28853887,-9.694933585,Y2Hf2O7
mp-558235,5.065200000000001,-3.868272876666296,4.389755577923174,0.0,-703.3865621,-6.5128385379629625,CaTaF7
mp-768348,5.6722,-1.1091845639445834,2.9306911597837533,0.0,-154.34834811,-4.8233858784375,Sm(ClO4)3
mp-777481,4.0156,-2.068203558787879,3.0080566313357076,0.10032756068181836,-352.13710412,-4.0015580013636365,Ba6YBr15
mp-504852,2.0654000000000003,-1.6320107623362066,4.33726561855586,0.0,-167.12770795,-4.17819269875,Cs2Na3InO4
mp-758240,0.22710000000000008,-2.720551461441799,2.4292739478427494,0.0672185916269834,-262.75006214,-7.2986128372222225,LiTi(PO3)4
mp-29763,1.182,-0.6887098734310346,3.8065871977238523,0.5147666013333332,-36.99313906,-3.6993139059999995,RbMnBr3
mp-17064,2.6255,-2.030076803522728,7.431323219232934,0.9029429835227258,-176.37467512,-8.017030687272728,Gd2Sn2O7
mp-676038,1.3431000000000002,-0.6980376368262982,3.6915233637488885,0.006868834090914433,-49.47769079,-4.49797189,Ga5(PS)3
mp-23373,4.6276,-2.2552253305066667,3.1674457732412544,0.0,-86.9007493,-3.620864554166667,BaZnCl4
mp-762684,,,,,,,
mp-605503,3.2839,-2.3349577050283923,2.650317779297857,0.06517385638888484,-440.70142538,-6.8859597715625,CrP3(HO5)2
mp-778639,,,,,,,
mp-626282,3.7935,-1.4765515122995057,1.917913853188301,0.02193942148151873,-271.69762671,-5.031437531666667,Sr(H8O5)2
mp-24992,0.8357999999999999,-0.7538169652800004,3.6564013287468438,0.9612387981249837,-40.965265,-5.120658125,FeHO2
mp-769742,,,,,,,
mp-777086,,,,,,,
mp-22971,1.7752,-0.6640439602083337,4.3124496802470365,0.0,-44.92419149,-3.7436826241666665,SbSBr