id,band_gap,formation_energy_per_atom,density,e_above_hull,energy,energy_per_atom,pretty_formula
mp-775925,0,-0.900255989,3.397358691,0.069091177,-281.1757211,-4.134937075,Li8Sb7S19
mp-18820,0,-2.493766633,5.199059387,0,-76.01592775,-6.334660646,Sr3Fe2O7
mp-644504,0,-0.118742939,5.369279561,0.093323473,-11.27741082,-2.819352705,NdMg2Ag
mp-626293,3.1307,-1.479017639,1.905429485,0.024191647,-271.4349362,-5.026572893,Sr(H8O5)2
mp-865031,0,-0.437884214,13.72036697,0,-133.0730531,-6.653652653,Mg2ZnB2Ir5
mp-675015,0,-3.417536127,9.815043877,0,-203.7582134,-7.836854362,Yb6U3O17
mp-622565,0,-0.174485567,9.190854955,0,-86.16848786,-5.385530491,Ho3Co
mp-603609,0,-1.444701772,2.011951865,0.005193866,-364.9895613,-4.802494227,AlH20Ru(Cl3O5)2
mp-777664,3.0898,-2.926395871,1.99928984,0.064607324,-71.4194956,-5.101392543,Li2FeF4
mp-1294,0,-0.174846128,7.390488287,0,-42.42382243,-7.070637072,YCo2
mp-1019611,5.6243,-2.891329053,2.74770153,0,-812.7960215,-7.667886995,Cs2Na2Sr(B3O5)6
mp-757671,0.1172,-2.880905331,2.773669917,0.072575392,-292.1652892,-7.304132231,Li3Ti2(PO4)3
mp-769050,0.2303,-1.480786329,3.292878436,0.059814579,-132.8282322,-5.534509675,Li2NbS3
mp-30437,0,-0.809282768,6.336370103,0,-54.47072998,-4.539227498,CaSnPd
mp-761910,0.0008,-2.41126244,3.386891611,0.029572538,-113.2666306,-4.356408868,Li3Cu2F8
mp-22744,0,-0.561400528,11.11423015,0.000751948,-363.3438958,-8.651045137,Ta11(NiSe4)2
mp-545359,1.5182,-1.349072641,2.843574757,0,-24.43369587,-4.072282645,KNa2CuO2
mp-510560,0.1994,-4.321284443,6.002554699,0,-164.8866684,-6.87027785,CeF3
mp-674506,4.4518,-2.956811413,7.459370503,0.026158721,-128.7450367,-5.149801467,NdPb7F17
mp-540619,1.2332,-0.830652823,3.498760869,0,-90.32886224,-3.226030794,K3SnTe3
mp-19873,0,-0.833207354,8.963287075,0,-87.18560899,-7.265467416,DySiRu
mp-767798,0,-1.380965229,5.024933736,0.023311118,-426.4187129,-5.537905362,Ni17(AsO4)12
mp-5977,3.3252,-3.864828853,6.151877845,0,-197.4465176,-8.974841708,Nd2Zr2O7
mp-554885,4.3725,-2.763123064,4.052527194,0,-168.9620169,-7.680091675,Ba3Si6N4O9
mp-675680,1.3586,-2.263593517,5.110114644,0.145587374,-222.6783144,-6.185508733,Sr(SbO3)2
mp-607225,0,-0.128348136,7.050713239,0.033185099,-68.74055744,-4.910039817,Mn2Ga5
mp-28947,2.9784,-1.573629295,3.13012551,0,-112.8619426,-3.526935708,NaSn2Cl5
mp-850750,1.0905,-2.433541889,2.959941162,0.051045747,-346.5644487,-6.931288973,LiV2P4(HO8)2
mp-1579,0,-0.194431888,7.859879748,0.07808316,-23.60165402,-7.867218007,ErC2
mp-2142,0,-0.074432644,10.91771064,0,-70.89927647,-5.908273039,Te2Os
mp-558489,4.1308,-3.938058126,8.422653927,0.018359036,-1317.664753,-9.548295309,Ca6Hf19O44
mp-19299,2.3089,-2.625039733,4.046621922,0,-80.21334938,-8.021334938,CrBO3
mp-29251,2.5167,-1.357085423,5.441550499,0.008919019,-188.775421,-4.967774236,Te6Br2O11
mp-720825,4.9949,-1.948470406,1.897417636,0.032749785,-373.6343576,-5.661126631,NaPH4O5
mp-38099,1.5162,-1.712050199,3.179464426,0.04792556,-45.56919683,-3.254942631,Rb4Cl2O
mp-790064,0,-2.564093283,3.270063317,0.069668021,-268.4221099,-7.45616972,V5Co(PO4)6
mp-758855,3.3925,-2.412243216,3.448596405,0.024066075,-296.0962475,-6.168671823,LiZnBO3
mp-771061,0,-2.225568801,4.215938733,0.081237229,-209.4735958,-7.481199849,MnFeBO4
mp-12802,0,-0.18904255,7.287479742,0,-33.60430038,-4.200537548,AlCu3
mp-22416,0,-3.611163962,6.723163542,0.049408036,-173.3941674,-8.669708369,SmTiO3
mp-775256,0.3494,-2.709216135,2.868611599,0.002658169,-318.1253958,-7.230122632,Li4MnV3(P2O7)4
mp-31169,0,-0.32825206,6.595294286,0,-17.05099562,-4.262748905,ScAlAg2
mp-707940,4.4925,-2.086621766,3.286796262,0,-292.9775081,-5.051336346,ZrCd2H12(O3F4)2
mp-684508,2.0472,-2.401733401,3.506667147,0.033723364,-481.3609266,-6.685568424,LiSb2(PO4)3
mp-7505,1.0827,-0.526434236,3.000090896,0,-41.70114094,-4.170114094,K2P2Pd
mp-982880,0,0.012071149,6.406054696,0.012071149,-20.65848673,-5.164621683,Pm3Y
mp-277,0.9706,-1.693347241,6.146823509,0,-277.2235413,-9.90084076,Zr3N4
mp-676168,0.0244,-0.024665211,6.731560667,0.040181021,-92.95320747,-3.098440249,Ag8GeTe6
mp-971951,0,-0.420334173,9.447993647,0.122280074,-33.38073147,-8.345182868,Zr3Pt
mp-775823,1.6463,-2.349779291,5.586004838,0.004890375,-391.8023995,-9.795059989,Zr2N2O
mp-776016,1.3316,-1.239076876,2.248182197,0.020290579,-81.31451571,-3.388104821,K2O
mp-34337,4.9341,-0.864046653,1.524079558,0,-27.34954973,-4.558258288,H4NCl
mp-983426,0,-0.200466269,8.356838605,0.005466652,-18.35235591,-4.588088978,PmDyCu2
mp-1595,2.3391,-3.044612104,4.264120758,,-58.87833226,-8.411190323,Nb2O5
mp-20648,0,-0.475308852,5.74113761,0,-115.2392433,-9.603270273,V2C
mp-861644,0,-0.856612274,14.26115362,0.077115452,-23.86474512,-5.96618628,ThCdPt2
mp-684815,2.1914,-3.485125546,6.003318952,0.040948422,-238.6133324,-8.228045944,Ba4La2Ti3Nb2O18
mp-616218,1.5384,-0.494560493,5.277198785,0.007647841,-52.95337713,-2.406971688,Cd(In2I3)2
mp-21505,0,-0.411554262,8.864150995,0,-42.69657732,-4.744064147,YAgPb
mp-5447,0,-3.158781507,8.205261457,0.003828287,-179.3944823,-8.154294651,Sm3OsO7
mp-543052,0,-0.853833748,9.283523802,0.001477217,-166.4144,-5.200449999,Tm5Sb3
mp-31207,0,-0.652319093,7.517533307,0,-127.3346853,-7.074149181,Zr5GaSn3
mp-12505,0,-0.520635637,9.54604293,0,-25.8516935,-4.308615583,LuAgSn
mp-31102,0,-3.368354574,8.726760636,0.04743963,-185.9261159,-8.451187084,Tb3ReO7
mp-762067,1.1021,-2.669125593,4.156423454,0.042802264,-204.1277408,-7.290276457,Li4Ti3V3(SbO8)2
mp-768954,4.7106,-2.854243793,3.491446253,0.009044496,-190.543865,-4.763596624,Ba2YCl7
mp-4578,2.327,-1.783137036,3.444715964,0,-68.66097264,-4.904355189,Sr2GeS4
mp-560450,3.5649,-2.271970848,3.15942009,0.067427245,-277.5087894,-4.62514649,Sb2SNF11
mp-9195,1.4265,-2.128278686,5.904546493,0,-38.89410044,-4.861762555,BaCuSeF
mp-18388,0.8758,-0.327305871,5.136656755,0,-116.4060633,-3.423707745,Ga7Te10
mp-567290,1.1195,-1.516971605,5.760192282,0,-31.82601386,-7.956503465,LaN
mp-977362,0,-0.620510759,10.19268303,0,-21.47941435,-5.369853588,ZnGaRh2
mp-21379,0,-0.65986994,11.30343193,0,-54.93493246,-6.103881384,SmInIr
mp-18929,2.8551,-2.711684405,3.705715825,0,-199.4479654,-7.386961681,BaV2O6
mp-981376,0,-2.291615363,5.072078416,0.671798756,-34.47925689,-6.895851378,ScSnO3
mp-11660,1.0251,-1.815421155,12.97489367,0.068934986,-148.7610405,-10.62578861,Hf3N4
mp-21520,0,-3.070245755,3.772994461,0,-325.7996924,-7.404538463,NaCeP2O7
mp-24712,5.2946,-1.681369271,1.847854892,0.002549718,-248.6232301,-5.650527958,PH5NO3F
mp-10847,0,-0.296730353,7.511399116,0,-57.14117268,-4.76176439,NiSbSe
mp-780075,1.9855,-2.551377399,10.40552452,0,-422.3736175,-10.55934044,Hf2N2O
mp-541010,0,-0.582833109,6.268560147,0,-123.2630788,-5.869670419,Li2Ni12P7
mp-559521,1.5974,-0.922843498,5.989809245,0.000762587,-33.04262131,-4.130327664,InBi2S4Cl
mp-862906,0,-0.291736642,7.989010744,0,-17.14266215,-4.285665538,PmGaCu2
mp-14005,0,-1.602891927,3.11767816,0,-73.79873154,-6.149894295,KRuO4
mp-568419,0,-0.333621335,5.881688909,0,-90.06790267,-3.752829278,Mg3Ir
mp-29662,0.242,-0.448330146,7.696544813,0,-15.03751351,-3.759378378,TlBiSe2
mp-17114,2.6688,-2.996894566,6.887363095,0,-160.1994652,-7.281793873,Nd2Sn2O7
mp-567156,0,-0.468327007,4.252797968,0,-216.5603706,-4.921826605,Pr(Al4Co)2
mp-569803,0,-0.333963308,12.25938172,0,-109.2742769,-9.106189743,B2W
mp-998985,0,-0.384546178,11.78125289,0.04256838,-23.87968268,-5.96992067,TiAu
mp-51,0,0.00286017,0.570150617,0.00286017,-1.90511248,-1.90511248,Li
mp-11388,0,-0.382887015,15.17358278,0,-12.66026957,-6.330134785,GaIr
mp-690733,6.1018,-1.690626141,1.957348563,0,-77.36787122,-5.526276516,H2SO4
mp-764465,1.6084,-2.369257192,3.224303896,0.050547632,-312.5560314,-7.103546167,LiFe2(BO3)2
mp-697305,2.3028,-3.020372678,1.529300112,0.118936962,-587.1719482,-6.827580793,K2Na5Al7Si5O24
mp-3886,0,-0.646094958,5.238952992,0.01094154,-65.30600103,-8.163250129,Zr2AlC
mp-972327,0,-0.421444966,10.39206146,0,-37.10750905,-9.276877263,Zr2CoOs
mp-29629,0.1451,-0.155534496,2.214963936,0.084021224,-364.5722033,-4.557152542,Be3P2
mp-557233,4.2763,-3.29989203,5.804586201,0.001199731,-63.19321013,-5.266100844,AlTlF4
mp-641314,0,-0.785233929,15.93503741,0.002877215,-177.167723,-6.32741868,Dy2(GePt3)3
mp-355,0,-0.688149191,5.868754141,0,-206.880357,-5.746676582,Nd5Si4
mp-32616,1.8097,-1.060320531,3.472752944,0.001606176,-43.51239113,-4.351239113,Ga2S3
mp-14260,3.0283,-2.325676474,3.476298117,0,-727.4247264,-6.494863629,ZnAg(PO3)3
mp-769504,0,-2.047953597,2.856065087,0.018693292,-300.3467079,-6.257223081,Na2NiPCO7
mp-29458,0.9479,-1.754512025,3.068356784,0,-121.2442213,-4.330150762,Rb3Mo2Cl9
mp-571135,0,-1.6752284,5.15065584,0.013710779,-95.6943098,-5.980894363,La3BCCl3
mp-21201,0,-0.77120634,8.286157453,0,-29.00211942,-4.83368657,LaGa3Pd2
mp-4860,0,-3.045797666,7.994723563,0.021807586,-70.4923538,-10.07033626,Gd2CuO4
mp-27310,3.5473,-2.790567717,3.350304585,0,-158.0539019,-4.648644174,Na4Sn3F10
mp-981211,0,0.109371405,6.919059701,0.109371405,-18.18183243,-2.272729054,ZnIn3
mp-565711,5.3101,-2.526204549,2.078273557,0.008287181,-494.6100159,-5.888214475,P2O2F3
mp-7497,0,-0.623957037,7.792525979,0,-20.13240931,-6.710803103,ThSi2
mp-26,0,0,6.20891729,0,-19.70636613,-4.926591533,La
mp-973539,0,-0.379118567,5.620708563,0.013080433,-34.57330526,-4.321663158,LuAl3
mp-8676,0,-0.520271318,6.728614364,0,-20.09572737,-4.019145474,Tl(CuS)2
mp-560068,3.7505,-1.437973237,2.492486985,0.011634553,-323.0169874,-5.047140428,Na3NO4
mp-695396,1.6565,-3.005582765,4.463788968,0.033150091,-309.5288808,-7.73822202,Na3SrTiNb3O12
mp-773242,0.8082,-2.285263333,4.131810369,0.100468821,-101.2417998,-6.749453323,Li3V3CoO8
mp-863656,0,-0.478071041,6.334459625,0,-17.88468227,-4.471170568,PmH
mp-763243,0.1638,-1.877774738,4.815465415,0.096076388,-93.48597316,-5.193665176,Co3(OF2)2
mp-680400,1.6765,-1.313730368,3.07835919,0,-344.6808281,-5.38563794,K3Ta2S11
mp-780097,0.2654,-2.340333613,4.288957871,0.093087672,-104.7570521,-5.819836227,Fe3(OF2)2
mp-1009695,0,-0.139917299,2.794166409,0.186683257,-15.77909988,-5.25969996,CaB2
mp-752395,1.9318,-2.157609688,4.276527912,0.081056257,-137.2340151,-4.901214823,Ba2Na2O3
mp-3539,0,-0.332290435,8.64990639,0.009818404,-26.02948252,-6.50737063,NbGaNi2
mp-764661,0,-1.287570555,4.892761162,0.070410556,-149.8551232,-4.995170772,Li3CoNi3O8
mp-29289,0.9713,-1.312125758,7.024639011,0.003105864,-129.2170465,-5.384043603,BaPt2S3
mp-26725,2.5567,-2.454772433,3.901582137,0.03459995,-272.4973935,-6.488033177,LiSnPO4
mp-1018101,0,-0.180112937,7.406342908,0.120873287,-25.79853795,-6.449634488,AlCo3
mp-756654,2.7582,-2.137883913,5.328280071,0.082990984,-64.75185314,-5.395987762,SbOF
mp-622602,2.6358,-1.975686684,3.734669632,0,-451.6580611,-6.273028626,NaMoAsO6
mp-28982,1.4051,-1.318289592,5.009222569,0.006655995,-63.937596,-3.552088667,Pd(PbCl3)2
mp-865877,0,-0.663407415,12.83599709,0.070422592,-36.94857047,-9.237142618,Ti2RePt
mp-561920,0,-2.149321295,5.255196467,0,-37.46464101,-3.746464101,CsAgF3
mp-21006,0,-0.79409975,8.004943508,0.023521358,-30.75701843,-6.151403686,Ce(NiAs)2
mp-22787,0,-0.374510903,7.17306587,0.006046255,-46.93702323,-7.822837205,Fe2Si
mp-776667,1.8236,-1.722608526,3.06743671,0,-457.3044022,-6.725064739,Cr3(FeO6)2
mp-11194,0,-0.326971191,7.557193867,0,-31.4442836,-5.240713933,NdMgNi4
mp-865284,0,-0.268705035,12.38449342,0,-22.16260196,-5.54065049,Tm2CdOs
mp-757102,0,-2.387388716,5.722034997,0,-177.3297057,-6.333203774,Sr2RhO4
mp-632693,0,-0.533156211,8.044137134,0,-148.6072746,-6.754876119,Zr5(In2Rh)2
mp-638424,4.0328,-1.927332646,3.863101464,0,-313.1063625,-6.021276203,Sb2S2O9
mp-770504,0.8511,-2.239603625,3.591393838,0.018273405,-450.5328931,-6.257401293,Li24MnCr11O36
mp-13972,2.166,-3.34268565,7.219437753,0,-38.08845626,-7.617691252,Sm2SeO2
mp-676851,3.0607,-1.506614799,1.854420176,0.007464319,-29.27512608,-5.855025216,KNO3
mp-11295,0,-0.281974999,8.643090705,0,-16.95509392,-2.11938674,DyCd3
mp-21527,0,-3.156711901,3.144429289,0.012129773,-231.1052569,-5.252392203,Na2ScCuF7
mp-15520,5.094,-2.947634811,4.647194277,0.011444536,-526.6674727,-7.745109893,TbZn(BO2)5
mp-780342,3.1517,-3.792177611,6.405966128,0.079686312,-466.2428843,-10.59642919,Gd2Zr2O7
mp-631564,0,0.683149338,2.173588797,0.737919426,-13.00926522,-3.252316305,MgBe2B
mp-756888,4.3104,-3.574758739,4.092669212,0.034676139,-228.4269873,-8.158106688,La2(SiO3)3
mp-866640,3.4054,-0.497842419,5.152474795,0,-145.180545,-4.032792916,LiMgH6Ir
mp-1174,0,-0.037762228,2.471799567,0,-8.01239647,-4.006198235,MgSc
mp-23516,0,-0.901077676,3.768956676,0.011707862,-38.87618013,-3.887618013,Cu2Cl2O
mp-555251,5.6355,-3.277789687,1.849348888,0.011361329,-94.84606643,-7.903838869,SiO2
mp-621131,0,0.102094811,6.068739,0.145133758,-26.11167639,-6.527919098,Ti3Ag
mp-558625,4.1079,-3.287262297,3.766355294,0.014171189,-188.6192662,-7.859136092,SrZr(PO4)2
mp-2206,0,-0.28539008,10.98677298,0,-39.20405548,-6.534009247,LuCo2
mp-31005,3.5353,-2.371739764,3.826100739,0.018282992,-158.5640153,-6.098615972,Zn3(PO4)2
mp-755393,2.0515,-1.574612612,4.685984733,0.04729315,-50.45645875,-3.604032768,SrLaI5
mp-510349,0,-0.47097199,9.307363516,0.01752633,-165.5347567,-4.138368916,Ag13OsO6
mp-555131,4.1445,-1.914985028,3.598568823,0,-209.8690731,-6.558408533,CsCO2
mp-767539,1.0931,-1.131819081,2.292881706,0.09771349,-130.7615637,-3.632265658,Li6SbS2
mp-12448,0.3961,-2.865666604,8.073062984,0,-153.145038,-7.657251898,LiSm2OsO6
mp-770632,1.1252,-2.194585528,2.591987557,0,-95.6199336,-5.97624585,Li3CrO4
mp-27786,1.1627,-1.09118269,2.233399068,0,-94.3640309,-2.948875966,SbAs2Cl13
mp-775290,0,-2.143098161,4.540415562,0.051244445,-190.6565489,-6.80916246,Li4Nb2Cr3Cu3O16
mp-20608,0,-0.352349739,8.339263736,0,-26.12767387,-4.354612312,Tb2In
mp-756755,2.1375,-2.60006197,4.705813737,0.030907634,-139.3239103,-7.332837385,Li3Nb3TeO12
mp-5788,0.431,-3.29516399,7.13638603,0,-167.1474531,-8.357372655,NaUO3
mp-977117,0,-1.60158241,4.904351123,0.132844108,-25.16797428,-5.033594856,NaTeO3
mp-30294,2.4704,-1.776944703,3.59765079,0,-67.34758246,-4.810541604,Sr2SnS4
mp-972591,0,-0.066403162,2.437435117,0.030139242,-77.28863832,-2.665125459,Sm(Mg4Al3)4
mp-8439,0.1637,-0.774103495,4.237038641,0,-104.6702062,-4.02577716,Ca5(AlSb3)2
mp-6566,2.7868,-1.946967315,3.695753147,0.003092061,-226.7610124,-5.399071724,NaZnAsO4
mp-669364,2.4394,-1.180803338,4.986352964,0,-152.9657992,-5.463064258,Cs3Re3(SI)4
mp-865840,0,-0.835242058,10.73571151,0,-38.35752669,-9.589381673,Ti2TcIr
mp-4283,0,-1.037381212,8.161947085,0,-51.96715922,-6.495894903,LaSi2Pt
mp-23751,2.6161,-0.3105683,3.154975869,0.004143734,-41.3153295,-2.7543553,CsMgH3
mp-21459,0.5082,-0.760374006,4.684610737,0.001982081,-62.20346003,-3.887716252,InAgS2
mp-755464,0,-3.032436908,5.600599049,0.021550752,-41.77412785,-6.962354642,CeBrO
mp-10892,0,-0.641226517,10.32280537,0.056571307,-41.77572178,-6.962620297,MnAlPt
mp-555268,0.2762,-2.504319308,6.296362215,0,-160.3078636,-6.679494315,K2Sm2IrO7
mp-19488,1.7343,-2.585446394,3.31014801,0,-250.3324163,-5.689373099,Rb2MnSO4F3
mp-1008530,0,-0.39372136,6.794058417,0.027334845,-29.97201917,-7.493004793,AlVFeCo
mp-864796,0,-0.393406224,10.57719371,0,-13.38637141,-3.346592853,EuCdHg2
mp-758453,4.6627,-1.755124532,2.206799131,0.035818303,-359.2769068,-5.987948447,Na2P2H4N2O5
mp-23553,2.3809,-1.85721008,7.686173518,0.03116567,-193.6359707,-6.051124083,GeBi2O5
mp-27798,2.8856,-0.160961132,0.88214861,0.012847587,-709.783038,-4.929048875,B4H5
mp-1009130,0,-0.474331421,5.825235597,0,-18.06038429,-9.030192145,MnN
mp-67,0,0,3.029415158,0,-12.66507411,-6.332537055,Sc
mp-669594,0,-0.442598485,6.488585091,0,-146.2048044,-4.568900138,Pr5Ga3
mp-867896,0,-0.251132285,6.571093369,0,-16.80847756,-4.20211939,ScZnCu2
mp-716723,0.5647,-2.476998835,4.413296527,0.023642556,-405.651752,-7.800995232,V9O17
mp-779763,3.0138,-3.80909682,6.555812846,0,-386.1366218,-8.775832313,Tb2Ti2O7
mp-849583,2.2919,-2.985311768,5.260777649,0.05286227,-330.5840662,-9.182890728,YNb2NO5
mp-695843,0.8734,-0.936894043,3.377532269,0,-260.7441434,-3.834472697,SbH7(Br2O)3
mp-570593,1.1454,-0.296924447,4.734806998,0,-180.4699787,-3.759791224,RbAg2(AsSe2)3
mp-16742,1.5094,-2.087692613,6.298243483,0,-35.3340059,-4.416750738,BaAgTeF
mp-570645,3.6461,-1.415111042,3.116668947,0.004881382,-927.8209483,-7.731841236,Ca2Si5N8
mp-780282,2.7302,-2.401800973,4.250656305,0.094545516,-287.9403307,-6.855722159,Cd(BO2)2
mp-7438,0.4468,-0.401241843,3.855437476,0,-15.42846579,-2.571410965,KZnSb
mp-541339,4.6187,-1.653242245,2.147245186,0.017061929,-159.3589723,-4.979967885,SrH9ClO5
mp-4663,0,-0.767113451,10.05751785,0,-36.32852246,-3.632852246,Yb2CdPd2
mp-756344,4.323,-2.70991783,3.032240458,0.036784849,-114.9486676,-6.386037088,Li4ZrO4
mp-33332,0.0005,-1.526662387,5.684992606,0.011701627,-85.49191287,-6.106565205,Co5SbO8
mp-722780,5.6607,-2.485375881,3.612520106,0.013430617,-535.8683952,-6.69835494,Pr2P3(HO2)5
mp-11831,0,-0.578549473,8.452285162,0,-17.0934211,-2.848903517,YbZnSn
mp-27278,5.7942,-1.744348511,1.748562587,0.015969039,-407.7883069,-5.663726485,P(HO)4
mp-21367,0,-0.669406464,8.093875893,0,-36.57215202,-4.571519003,LaIn2Pd
mp-559065,3.1334,-1.035063815,4.414978526,0,-104.2553331,-4.343972213,NaI3O8
mp-464,0,-1.718079002,8.588298847,0,-11.5037192,-5.7518596,HoSe
mp-697683,4.5076,-1.03781869,1.468704529,0,-312.669585,-5.583385446,PH8N3O2
mp-29499,0.8759,-0.422169614,6.281234289,0,-288.5712807,-5.153058584,Re3Te8Cl3
mp-775938,2.084,-3.484388602,4.143546565,0.038990863,-321.6374825,-8.934374514,TiO2
mp-555967,1.8512,-1.070374318,2.32065508,0.00784585,-137.213608,-4.900486001,TaP4S4Cl5
mp-1006059,0,-0.022613628,10.51469458,0.007133119,-22.17909391,-2.772386739,Tl3Bi
mp-29279,0.0284,-1.092495353,2.712154578,0.002192745,-65.33717763,-2.722382401,CuClF10
mp-42264,3.6488,-1.709840662,2.246596453,0.024066474,-58.35417729,-4.488782868,K2MnH4(Cl2O)2
mp-2740,0,-0.117924141,9.362229225,0.027625743,-40.82492774,-6.804154623,ErCo5
mp-34650,0,-2.049289871,4.649727249,0.033536411,-115.2862994,-7.205393714,LiMn3O4
mp-27454,0,-0.273414229,2.991348495,0,-24.51902608,-3.06487826,BaLi2Si
mp-16932,0,-0.002320771,10.07623687,0.086197564,-135.7338062,-7.143884535,Th2Co17
mp-574122,0,-0.097358163,6.125070062,0.019660775,-53.54519952,-5.354519952,UAl4
mp-867757,4.2981,-2.80614938,3.041148252,0,-137.9614266,-6.569591745,RbCaCO3F
mp-3523,3.01,-3.668688802,7.128193951,0.011029949,-289.7494114,-10.34819326,SrGd2O4
mp-754857,1.5249,-2.423585926,4.756014305,0.117712846,-171.4322446,-7.792374753,Nb2Ge2O7
mp-757100,0.714,-1.02796701,3.436225151,0.057264142,-20.0586721,-5.014668025,LiCoS2
mp-10417,2.0361,-1.902782146,3.982666038,0,-42.60327902,-5.325409878,KSbO2
mp-21375,0,-0.361430566,5.380002605,0,-34.96085561,-3.884539512,CeMgGa
mp-556819,4.0309,-1.906886109,5.154111729,0.000139672,-415.6177641,-5.468654791,Tl2Cd2(SO4)3
mp-676449,0.8347,-2.826451869,1.988935977,0.104839254,-327.2091633,-6.81685757,Na4Al3Si3NO13
mp-13954,5.8839,-3.051328773,3.747213646,0.00341977,-85.2821418,-4.737896767,Rb2GeF6
mp-707334,3.6051,-2.435864731,2.358035062,0.019017643,-240.2070459,-6.321238049,K7P6H2NO22
mp-998749,3.9117,-1.903928759,2.829707141,0.05488165,-17.51931725,-3.50386345,KCaBr3
mp-557359,3.6651,-2.532687488,4.238991413,0,-80.05152259,-6.15780943,Cs2Al2Sb2O7
mp-15805,0,-0.274727289,7.447451386,0,-38.07668324,-7.615336648,Mn3ZnN
mp-361,0.4997,-0.650931665,6.014320958,0,-28.75558945,-4.792598242,Cu2O
mp-756054,0.0585,-2.24283386,6.491091979,0.111835806,-193.7622912,-9.688114558,Zr2N2O
mp-8217,6.0358,-3.074735601,3.894138582,0,-42.60944752,-4.734383058,Cs2GeF6
mp-18784,2.9768,-3.231203928,5.575185961,0,-96.59106714,-8.049255595,DyVO4
mp-8511,7.0881,-2.941777116,2.286484194,0,-60.32641543,-5.027201286,PF5
mp-38284,1.7118,-3.810512966,6.587313312,0.072648809,-371.5975463,-8.445398779,Ce2Nd2O7
mp-768291,0,-1.546593226,7.539508252,0.096248274,-95.67242614,-5.315134786,Hg(SbO3)2
mp-27017,3.4153,-2.484095583,3.767551598,0.0052768,-364.9719543,-6.517356327,LiSnPO4
mp-773910,3.6141,-3.3893772,7.671494731,0.023815494,-248.0186486,-7.750582769,Er2GeO5
mp-617247,0,-1.775047702,6.265433148,0.066247468,-242.462368,-6.061559199,Cu2BiPO6