id,band_gap,formation_energy_per_atom,density,e_above_hull,energy,energy_per_atom,pretty_formula
mp-559982,4.8226,-3.249944293,3.254700391,0.003321421,-106.7819424,-4.853724656,Na2AlZnF7
mp-27366,0.7032,-1.48935622,2.775236175,0,-108.581549,-3.619384967,KNiCl3
mp-764932,1.2708,-2.359874618,3.270084619,0.060514467,-320.6788926,-6.971280274,Li3Fe4(BO3)4
mp-30247,4.1797,-2.081131041,2.304077071,0,-26.94229387,-5.388458774,Mg(HO)2
mp-560110,1.9645,-3.640362584,5.999201939,0,-316.9474866,-8.804096849,BaUTiO6
mp-2203,0,-0.399800311,3.699194892,0.030011104,-49.33714589,-7.048163699,YB6
mp-780148,4.1265,-2.548153343,2.708380459,0.054493292,-165.8851231,-6.91188013,Li3Mn2P4HO14
mp-15963,0,-1.08162857,11.37087706,0,-83.62478096,-9.291642329,HfPRu
mp-13374,4.3962,-3.984692244,7.874660256,0.02055027,-168.0299064,-8.40149532,LaTmO3
mp-753995,4.582,-3.963051884,7.290992698,0.088225527,-173.7602697,-8.688013483,YTmO3
mp-11503,0,0.072354733,7.407671128,0.085961365,-10.28736662,-5.14368331,MnZn
mp-31837,2.3937,-2.547842248,3.242675682,0.042896456,-152.1311266,-6.915051207,LiFeP2O7
mp-10182,1.3612,-0.549764236,3.595313285,0,-10.23988653,-3.41329551,LiZnP
mp-16253,0.1797,-0.417375053,3.413083532,0,-42.41732312,-3.534776927,BaCaSi
mp-352,4.0165,-4.04375588,9.967762168,0,-122.1533033,-10.17944194,HfO2
mp-510486,0,-0.576628049,11.34242205,0,-253.7377682,-9.06206315,Ta3Al2CoC
mp-760582,2.1273,-2.442904848,4.383189126,0.078066411,-51.12739673,-4.260616394,Li2AgF3
mp-40519,1.8023,-3.419161409,5.442040351,0.008406346,-404.4003672,-8.088007344,Na3Sr7Ta3Ti7O30
mp-763968,1.3162,-1.91740701,4.582044755,0.052713428,-168.2611457,-6.009326631,Li4V3Ni3(TeO8)2
mp-771687,0,-1.800992583,3.547553725,0.092766073,-128.5128367,-5.841492579,Li5Fe5O12
mp-18243,3.8351,-2.89061364,3.301173054,0.014301541,-207.8059178,-6.926863927,K2Si3SnO9
mp-767223,1.0983,-2.739156219,3.164260118,0.008260505,-210.9764713,-7.032549042,LiVCrP2(O4F)2
mp-24364,3.7708,-1.868472389,3.083803645,0.040987888,-172.1906646,-5.73968882,CaAs2(HO2)4
mp-752648,2.2934,-2.608670591,4.48647681,0.035231258,-71.49067012,-5.106476437,Ba3(BrO)2
mp-673845,1.9508,-3.159794523,3.759844983,0.02971979,-195.7541867,-8.156424445,NbO2F
mp-40201,3.9839,-2.927231634,2.25051686,0.036803102,-309.3178899,-6.724301955,Na8Be3Si9(ClO12)2
mp-543017,0,-0.355714994,8.33670407,0,-250.8265566,-7.838329895,Dy12(MnC3)5
mp-756705,4.0582,-3.699204247,4.11122311,0.060194703,-248.3445248,-8.278150828,YAlO3
mp-773491,5.1839,-1.584436417,2.710718495,0.043289422,-354.1410674,-5.533454178,RbH2SNO3
mp-778768,0,-1.421795468,4.649578534,0.028838864,-76.85464288,-5.489617349,Li2Co3NiO8
mp-79,0,0,6.981483281,0,-2.54565365,-1.272826825,Zn
mp-631880,0,0.958880555,2.816275348,0.958880555,-8.98516506,-2.246291265,Na2SrFe
mp-542201,4.4995,-3.277725088,5.08095154,0,-102.421807,-7.878600538,Ba3Nb2O8
mp-20656,0,-0.000912292,8.484269124,0,-114.5282948,-8.809868832,DyMn12
mp-9442,0,-0.661043372,7.761447572,0.02709905,-104.6005838,-6.537536489,Dy3Fe2Si3
mp-776047,0.0118,-2.347243746,3.422560616,0.078754073,-259.6903671,-7.213621307,Mn3Cr2Ni(PO4)6
mp-1020015,5.4029,-2.811276941,2.189526831,0,-819.4441451,-7.316465581,Li2B3PO8
mp-989520,3.7526,-1.910285923,3.120833247,0,-33.89567649,-3.389567649,Rb2NaBiCl6
mp-753131,0,-3.062689409,3.984238961,0.058493575,-117.06409,-7.804272669,Li3Ti4O8
mp-2291,0,-0.350399173,4.751230924,0,-17.68008833,-5.893362777,Si2Ni
mp-4534,3.3888,-1.893318076,2.236321364,0.008322058,-106.3599112,-6.647494448,NaCO2
mp-580287,0,0.037398827,6.921041659,0.139273905,-29.59226284,-7.39806571,Zr3Cu
mp-19196,0,-2.772501497,7.240473361,0.105750832,-124.8110265,-7.341825089,La4Co3O10
mp-5981,0,-0.331719382,6.76901778,0,-114.6235065,-3.82078355,Ce2Ga12Cu
mp-756565,1.4828,-3.318070977,3.797500668,0.074290184,-202.1257681,-8.421907003,Li2Ti7O15
mp-864837,0,-0.168949726,8.416430259,0.034982057,-23.57130144,-5.89282536,Nd2CuRu
mp-667360,3.6042,-2.774615754,4.085385351,0,-412.2439474,-4.90766604,CsSbOF4
mp-5517,0,-1.020879227,7.939628314,0,-32.10796248,-6.421592496,Tb(NiP)2
mp-767071,2.8039,-1.933759873,2.545147541,0.075924074,-148.2654731,-6.739339686,Li2Co(CO3)2
mp-571664,0,-0.556203913,7.817082801,0,-52.22118716,-8.703531193,Zr2Rh
mp-768976,2.7439,-2.285240591,4.525974947,0,-150.7785477,-5.384948132,Cs3ScO3
mp-776470,1.0064,-1.884356141,11.51383002,0,-299.4522607,-10.6947236,Hf3N4
mp-5632,3.6273,-2.871832098,6.15038397,0,-86.779878,-7.2316565,DyAsO4
mp-20861,0,0.009043171,7.639573809,0.089677888,-56.96545489,-7.120681861,CrGe
mp-550908,3.6882,-3.822458384,7.490188759,0.011460692,-86.85963733,-8.685963733,SrHfO3
mp-23634,4.4254,-2.587584582,3.359379926,0,-210.2295153,-4.379781569,KSbClF3
mp-1200,0,-0.09986875,9.060571983,0.020845508,-40.77664889,-6.796108148,TbCo5
mp-1406,0,-0.038175015,6.311655672,0.054411852,-12.37801442,-6.18900721,MnTe
mp-19801,0,-2.225431417,8.144482591,0,-165.7758874,-8.288794368,EuRhO3
mp-569810,2.5342,-1.431424868,3.823509734,0,-144.2367446,-6.009864356,Sr2BIN2
mp-30767,0,-0.375191852,2.974647781,0,-49.50266022,-2.75014779,Li7Sn2
mp-554930,1.3681,-1.013631551,3.155752225,0.00177598,-309.1990934,-5.521412381,Nb2AgPS10
mp-505005,0,-0.639626775,9.874248636,0,-48.99042329,-8.165070548,CeSiOs
mp-542814,5.511,-3.284635553,2.067453896,0.004515462,-569.569301,-7.910684736,SiO2
mp-861900,0,-0.430216047,12.11777893,0,-13.20674875,-3.301687188,LiGaAu2
mp-976784,0,0.092720487,16.5031906,0.092720487,-15.22823942,-3.807059855,NiAu3
mp-680576,0,-0.82426459,5.885539079,0.004786356,-261.0785747,-7.25218263,Ti2Se
mp-850746,1.2903,-2.321171592,4.271963251,0.074198121,-141.0867577,-5.878614902,Fe4O3F5
mp-15503,1.036,-1.108288469,4.729596391,0,-353.2917216,-4.906829467,Ba4TiAs4
mp-769284,2.1791,-3.414984091,8.24649447,0,-38.22813805,-7.64562761,Dy2SeO2
mp-3042,7.2224,-3.450224934,2.606023783,0,-47.22131102,-5.246812336,K2SiF6
mp-571335,0,-0.521748617,11.06276181,0,-33.54327918,-5.59054653,ThBi2
mp-675506,0.3587,-2.279504346,7.665334229,0.08506851,-296.8136123,-7.239356397,Nb6(Pb2O5)5
mp-6064,2.6622,-2.645395972,6.235092886,0,-134.3423416,-6.106470071,Sr3MgPtO6
mp-20181,0,-0.254040846,7.074734131,0,-163.2610857,-8.163054287,Ce2C3
mp-611623,0,-0.814495277,10.12820726,0,-80.81089997,-8.081089997,U(CoP)2
mp-584116,0,-2.163713407,6.06029055,0.077812112,-97.23417652,-6.482278435,Bi3(PO5)2
mp-9804,4.2582,-2.597789375,4.007569458,0,-150.9514563,-7.547572817,KHo(CO3)2
mp-2794,0,0.053717312,7.7869922,0.053717312,-120.7481607,-8.624868619,Fe5C2
mp-28496,0.1207,-2.226845558,3.496058188,0,-150.3923369,-4.699760527,K2UCl5
mp-769028,4.1105,-2.7369123,3.914808218,0.009979866,-201.7703057,-7.206082347,Si3Sb2O9
mp-772920,0.7634,-2.442407989,2.473957973,0.088786367,-408.6555123,-6.009639886,Li8Ti2O7
mp-752942,0,-3.175035941,3.385701129,0.089753116,-113.6662794,-8.119019959,LiTi2O4
mp-8892,4.0149,-2.977223778,4.459466129,0,-112.8214968,-4.700895698,LiInF4
mp-733817,0,-3.119598622,3.056973677,0.063461833,-385.3740409,-6.760948087,Mg16Si8HO32
mp-2089,0,-0.693299472,6.305083975,0,-41.49593048,-5.18699131,ZrTe3
mp-772863,3.0053,-2.141268519,3.284323095,0.020813203,-209.3031524,-5.813976454,Na2Ge2O5
mp-768585,3.2358,-3.545331448,8.54788828,0.001234919,-248.5429575,-9.55934452,HoTa3O9
mp-28773,2.4813,-1.309104234,2.602312588,0,-172.5487306,-3.92156206,Na4Ga2S5
mp-362,0,-0.635935805,6.024585675,0,-54.88657107,-5.488657107,Ni3S2
mp-557322,0.86,-1.378318181,7.301242818,0.169692785,-86.60498536,-5.094410904,Bi4Te2Br2O9
mp-556496,0,-0.651073086,3.247192911,0.015275404,-82.2837993,-3.918276157,Sr10Al4Si6O
mp-772305,0,-2.557400019,7.160987669,0.062683801,-313.7902589,-7.131596793,Y2Bi2O7
mp-554645,2.9773,-2.165469128,3.179583689,0.048068982,-106.1023644,-5.305118222,K3Sb2N2O6F7
mp-866006,0,-0.371942808,8.877436457,0.027513764,-15.18480083,-3.796200208,CaBi3
mp-30777,0,-0.58203008,16.21921754,0,-22.10294198,-5.525735495,MgPt3
mp-18502,3.7232,-3.113674555,3.981903032,0,-207.6782462,-7.417080221,BaSi3SnO9
mp-30137,1.6189,-3.289919836,8.451324811,0,-511.9377697,-10.6653702,Gd3ReO8
mp-928,0,-0.819124543,16.83371828,0,-49.52617839,-8.254363065,HoIr2
mp-759234,0.9308,-2.615102372,3.19096277,0.001618529,-177.990139,-4.449753475,Li3CuF6
mp-19187,0,-2.756294198,3.237339046,0.027467239,-157.9077818,-7.177626445,Na2ZrCo(P2O7)2
mp-32750,1.1641,-0.14877507,5.675146774,0.007419952,-23.6636066,-2.957950825,CuI
mp-18109,5.6663,-2.684256448,4.206128054,0,-314.2928494,-6.547767695,RbDy(SO4)2
mp-744644,4.1512,-1.542403268,1.779414517,0.001574302,-432.1779683,-4.801977425,Mg2MnH24(ClO2)6
mp-849457,0,-1.926508095,5.66519687,0.070670143,-115.0947035,-5.754735176,Li3Ni(SbO3)4
mp-556778,4.8353,-3.162705155,4.579353398,0.000314887,-155.5678033,-4.861493854,BaTeF6
mp-761710,0.0274,-1.7106172,4.361928167,0.004530197,-83.50155805,-5.964397004,LiFeCoO4
mp-267,0.2953,-0.337411605,8.405141636,0,-33.12616839,-5.521028065,Te2Ru
mp-640315,0,-0.18654803,7.292340954,0,-109.4931271,-2.380285373,Y(Zn10Ru)2
mp-561127,1.4649,-1.485510792,2.580931291,0.001337966,-344.1081797,-6.372373697,K2Ce(NO3)6
mp-974739,0,0.097678065,3.227450198,0.144131861,-5.02583432,-1.25645858,Rb3Tl
mp-555097,4.6909,-3.239989646,4.172446577,0,-216.4012175,-6.762538048,Tb3Si2Cl5O6
mp-626414,4.7659,-2.107415859,2.336295959,0.031254666,-163.593879,-5.842638535,Al(HO)3
mp-23453,0.9487,-0.352477703,6.593008814,0,-160.8263036,-2.233698662,Hg6Sb5Br7
mp-603912,0,-0.186383575,7.655937236,0,-159.101597,-7.955079849,Nd2MoC2
mp-558592,2.6389,-1.652083401,5.289826824,0,-469.8444714,-5.593386564,Sb8Br2O11
mp-585408,2.8056,-2.524918264,3.124631216,0.048489052,-262.3748869,-6.559372173,Li3Sn2(PO4)3
mp-28686,1.1223,-0.395724259,2.13488458,0.026630586,-673.4199116,-5.344602473,Ni(H2N)2
mp-6783,5.5381,-2.372064502,2.412277463,0.0002422,-241.3254299,-5.74584357,NaLiSO4
mp-555119,5.4929,-3.879634522,5.376255012,0,-116.8001443,-6.488896904,SrTaF7
mp-22151,0,-0.900163794,8.365519006,0,-61.21864059,-5.101553383,BaGePt
mp-17272,0.9521,-2.316818634,4.65139075,0.044335432,-153.9030807,-7.695154037,NbCuO3
mp-755664,0,-1.619051776,6.555233878,0,-155.956795,-7.088945225,Li2(TaS2)3
mp-22206,0,-0.710738613,8.133738222,0.030873852,-77.17996814,-6.431664012,TbCoSi
mp-1019715,5.0846,-2.860255274,2.377491503,0.000257875,-546.4930764,-7.590181617,CsLi(B3O5)2
mp-12965,0,-0.507826977,9.335611553,0,-74.81185114,-6.234320928,ErNi4B
mp-2932,0,-0.668029342,6.293802364,0,-146.4706604,-8.137258913,Y2Si4Mo3
mp-754936,5.1715,-3.740659603,7.607648976,0.040796638,-79.47218134,-7.947218134,DyAlO3
mp-22061,0.0543,-0.227968325,7.08032353,0,-92.72382236,-6.623130169,In(TeMo)3
mp-39010,0.7102,-2.424868208,4.20433172,0.203637234,-101.4629618,-7.247354414,MgCr2O4
mp-17586,4.0361,-1.931299809,3.187205415,0,-226.9659034,-5.674147585,CdS2O7
mp-24708,4.6714,-1.588509113,2.376521883,0.016617,-372.2384968,-5.169979123,ZnH8SO8
mp-569558,0,-0.319014437,13.66778274,0,-45.009559,-3.750796583,AlAu2
mp-976185,0,-1.345289942,2.872668873,0.446430365,-24.47359732,-4.894719464,NaBeO3
mp-14389,5.2445,-2.710357132,2.674454064,0,-972.4468463,-6.946048902,Na3AlP8O23
mp-766006,0,-2.016330503,6.719073693,0.001253342,-227.3744572,-5.684361431,In15SnO24
mp-540981,5.2762,-2.090405996,3.089447735,0.00635089,-156.552192,-5.591149713,CsHSO4
mp-754157,2.1588,-2.697065296,5.613815455,0.034801765,-65.32906714,-6.532906714,AlInO3
mp-684638,1.6714,-1.453800423,2.632899402,0,-201.2677127,-5.031692817,Al2S3
mp-570696,0,-0.675647033,6.962761879,0.001785219,-82.70355175,-5.168971984,Pr5Sn3
mp-31499,0,-0.18422177,3.619160956,0,-264.1810194,-2.668495146,Mg29Ir4
mp-7892,0,-0.468865297,5.786357813,0,-37.76798137,-7.553596274,Mn2AlB2
mp-27373,3.4408,-2.007098095,3.922181571,0,-50.82037136,-4.235030947,SnClF
mp-767365,3.9191,-2.462045228,2.817577295,0.016352266,-446.1274623,-6.970741599,SnP4O11
mp-556705,3.7779,-1.902180804,2.456622108,0,-165.2844114,-3.756463896,AsS(ClF2)3
mp-864834,0,-0.214465921,12.63726491,0.137708973,-32.50199266,-8.125498165,NpSnRh2
mp-32389,0,-2.098227767,3.271705029,0.09155779,-215.0526156,-6.325076929,LiNi2P3O11
mp-22493,0,-0.704872073,11.43945906,0,-18.58597404,-4.64649351,YInAu2
mp-774384,0,-2.128391317,4.323774765,0.082223745,-180.3955665,-6.013185551,Fe10O11F9
mp-1018149,0,-0.255146055,6.252104864,0,-15.29655976,-5.098853253,ScCu2
mp-3807,1.2612,-0.768529735,4.851783585,0.045688855,-55.49729301,-3.964092358,Al2CdSe4
mp-15728,3.3422,-2.566335527,3.130949452,0,-757.0306054,-6.759201834,MgAg(PO3)3
mp-9588,0.8142,-0.524872441,2.004394063,0,-66.94009504,-4.18375594,LiP
mp-698669,3.5548,-2.693495174,4.989669465,0,-256.0612411,-7.531212975,Nd2(MoO4)3
mp-862716,0,-0.14420052,7.898907867,0,-10.97079545,-2.742698863,LiAg3
mp-556378,3.5228,-1.47611422,5.232578369,0,-120.7101049,-5.029587703,BiSeClO3
mp-542791,1.7761,-2.090958112,4.241729645,0.000766733,-48.05343892,-8.008906487,ZrNCl
mp-29068,0,-0.576077043,9.959712552,0,-291.3716348,-8.093656522,Hf5FeTe3
mp-1666,1.6968,-2.213283547,6.92608397,0,-190.539541,-6.804983607,Th2S5
mp-13680,5.8868,-3.523535956,4.357484506,0.096187817,-152.9296063,-6.37206693,BaBOF3
mp-782638,0,-1.9676495,4.373196771,0.078232378,-109.2721983,-6.070677682,Fe3(O2F)2
mp-764125,0.8541,-2.602535503,2.869131564,0.040598574,-288.3765995,-6.866109511,Li4Mn2(PO4)3
mp-753831,0,-1.401995633,5.442459633,0.068847886,-133.656469,-4.455215632,Cu2OF2
mp-18440,0.7679,-0.390141496,3.595973976,0,-81.00386277,-3.375160949,Rb7NbAs4
mp-623066,0,-0.447114384,17.7435765,0.003657529,-91.95845154,-5.747403221,GaPt3
mp-14364,3.7302,-2.118044122,4.304866951,0,-84.39321648,-5.27457603,Cs2LiAsO4
mp-773363,0.9558,-2.141770692,4.990025366,0.096483566,-106.7553667,-6.672210416,Li4Mn3WO8
mp-865161,0,-0.361003329,10.24789349,0,-22.74959381,-5.687398453,Dy2AgRu
mp-510324,0,-0.582483332,8.024168748,0.005408194,-139.4609191,-6.339132686,Ce3(SiNi3)2
mp-695383,5.2705,-1.919548944,2.38247242,0.023460787,-137.4695861,-5.72789942,K2HS2NO6
mp-973865,0,-0.249344255,6.485036448,0.014817321,-21.73904751,-5.434761878,PaAl3
mp-569313,0,-0.462789177,6.276861845,0,-162.5721427,-5.806147954,Mg3Si8Ir3
mp-1014226,0,-0.964701206,6.725120469,0,-79.38274185,-7.938274185,Zr3ZnN
mp-753192,0.638,-1.826498886,9.0366661,0,-31.38195127,-4.483135896,Yb4Sb2O
mp-7073,0,-2.04700401,3.981785742,0.004005162,-60.89999334,-6.089999334,BaTiS3
mp-721875,5.419,-2.001308076,2.168216714,0.038299037,-226.2268325,-5.953337697,CaB2(HO)8
mp-672715,0,-1.606697166,4.099307387,0.061027664,-312.2276477,-5.781993475,Ba7(Fe3S7)2
mp-14243,0.499,-1.537550584,7.068364242,0,-93.24123037,-4.662061519,Cd3TeO6
mp-624234,2.1305,-1.589869529,8.378175301,0.000587591,-88.79278235,-5.549548897,TePb2O5
mp-27587,0,-0.327960947,5.31816073,0,-29.97576741,-2.725069765,Li8Pb3
mp-162,0,0,7.103058442,0,-1.52883786,-1.52883786,Yb
mp-774379,0.8696,-2.882806634,3.610328533,0.03189757,-192.9443765,-6.029511766,Cr4OF11
mp-631270,0,0.925650168,9.084589019,0.938661886,-10.65717912,-3.55239304,ZnFePb
mp-5848,0,-0.77882597,8.406902181,0,-39.15751457,-6.526252428,ErZrSb
mp-561434,1.6563,-0.877200771,4.408527506,0,-103.6725821,-3.455752736,Rb2Sn2Hg3S8
mp-720643,4.9329,-2.938753964,2.679830053,0,-514.7413548,-7.149185483,K2ZrSi3(HO5)2
mp-6899,6.1046,-3.342218466,2.953873795,0.006366963,-224.8221931,-7.025693535,CaBePO4F
mp-998560,2.1462,-1.271880778,3.04212387,0.020177517,-16.8822126,-3.37644252,InSnCl3
mp-34730,1.6099,-1.83554506,5.09793165,0.060797539,-84.9619295,-6.06870925,Zn(FeO2)2
mp-2350,0,-2.502287356,5.59051046,0,-13.39558478,-6.69779239,LaS
mp-761932,0,-1.423982722,5.015378577,0.103287396,-140.9715343,-5.873813928,Fe3Co3(TeO8)2
mp-626229,5.2569,-1.595520947,1.928486322,0.025466091,-214.0426024,-5.351065061,H4SO5
mp-975655,0,-0.74383083,7.482757561,0,-45.56550733,-5.695688416,PrNiGe2
mp-582175,0,-1.07744083,5.281986003,0.000193128,-115.6333233,-5.25606015,La4Si4I3
mp-28796,1.2743,-2.361320151,6.802028217,0,-84.19863385,-5.613242257,Sr5(AuO4)2
mp-580154,0,-0.674846976,8.901606574,0,-62.9577182,-6.995302022,GdMgAu
mp-861956,0,-0.436452516,8.895200786,0,-22.01053439,-5.502633598,LiPm2Ir
mp-974583,0,-0.594655187,12.84236373,0.081501327,-29.58771921,-7.396929803,NdSmIr2
mp-743906,0,-3.038333269,7.804341741,0.03121564,-213.0239032,-8.520956127,La5MnRe3O16
mp-865115,0,-0.371300598,8.994581963,0,-8.19608039,-2.049020098,NaNdHg2
mp-540878,0.2106,-3.117401246,7.794740494,0.006974871,-242.6976863,-8.667774512,La3Re2O9
mp-1019564,0.2953,-1.076111139,2.99331992,0.081925433,-35.17067662,-3.907852958,Ca6Ge2O
mp-705842,0,-1.592237936,5.075133909,0.101769233,-176.0446599,-6.287309282,Fe9Cu3O16
mp-19023,2.3211,-2.59089556,5.886916798,0,-83.20715169,-6.933929308,YbCrO4
mp-705844,0,-2.194946552,4.035264661,0.000666277,-135.534279,-6.776713952,Mo5(O4F)3
mp-30752,0,-0.069142505,2.426492471,0,-76.88116995,-2.023188683,La2Mg17
mp-976931,0,-0.323584731,8.997256844,0.004323255,-15.22565807,-3.806414518,LuAlAg2
mp-762289,3.2561,-2.577385753,3.99179794,0.03598,-90.56149644,-6.966268957,Li2P2WO8
mp-3944,0,-0.596809313,6.799138632,0,-26.23937535,-6.559843838,ZrAlNi2
mp-553884,4.2625,-2.753373215,4.582474114,0,-171.5640127,-5.361375397,Ba5Si(Br3O2)2
mp-5640,0.0081,-0.84393022,10.64624015,0,-14.38222093,-4.794073643,ErSnAu
mp-558642,3.9997,-2.746114278,4.448879463,0,-211.4093852,-5.28523463,Sr3Bi(ClO)3
mp-13236,0,-0.694105416,7.807410265,0,-89.43820749,-5.589887968,Ho5Si3
mp-647900,0,-0.624158252,4.818699953,0,-190.6567933,-4.333108938,TlAs3PbS6
mp-571109,0,-0.615692611,4.614830337,0,-67.86387243,-4.847419459,Li2Nd2Si3
mp-776424,1.1707,-2.367938232,2.938350042,0.085991783,-319.4870401,-6.14398154,Na2LiCuP2O7
mp-631539,0,1.435498352,5.822758972,2.06511798,-7.52412745,-2.508042483,BiBCl
mp-18814,3.473,-2.03321755,3.547319352,0,-79.09841203,-7.909841203,MnCO3
mp-555322,0.6427,-3.163943754,4.942564539,0,-266.020309,-8.313134656,Eu2SiCl2O3
mp-763431,0.5714,-2.509216775,3.786816346,0.084277261,-94.21099929,-6.729357092,LiMn5O3F5
mp-1019566,2.4818,-2.504515958,4.385940043,0.022913402,-147.167122,-6.39857052,Ca3ZnGe5O14
mp-540011,0,-2.418923974,2.506323201,0.06029075,-307.0213056,-6.674376209,Li2Ni(PO3)5
mp-977548,0,-0.761581961,6.178322044,0,-48.37585664,-4.837585664,Nd2MgGe2
mp-20288,0.1712,-3.046020003,4.984995785,0,-285.2142752,-7.922618756,CeCO3F
mp-643629,0,-2.082466884,6.958368687,0.022475156,-193.3342064,-6.041693951,Sr2YCu3(PbO4)2
mp-768083,0,-3.065188861,4.527211416,0.093565645,-539.5851114,-8.431017365,Li5La3Nb14O42
mp-30479,0,-0.383577741,4.146141442,0.03608934,-11.24266728,-2.81066682,Ca3Pb
mp-971906,0,-0.259558454,11.00261726,0.12565668,-17.21114689,-4.302786723,TmBi3
mp-560815,5.4968,-3.112922346,1.354104811,0.02932247,-805.3396627,-7.456848729,AlPO4
mp-772272,2.5043,-1.830559614,2.673104956,0.085793226,-275.1376604,-6.253128646,Li2Cr2O7
mp-961695,0.6382,-0.737672829,7.576631123,0.327288697,-17.39201949,-5.79733983,LaCoTe
mp-28754,0,-0.467622715,6.506768375,0.001296976,-233.9715266,-5.849288165,Nb3GeTe6
mp-545482,1.0476,-1.048075957,4.702190409,0,-53.17453344,-5.317453344,PdSeO3
mp-774380,0,-1.994353142,4.585360269,0.083440469,-154.6308656,-5.154362188,Co2OF3
mp-560708,5.632,-3.279695276,1.770509704,0.00945574,-664.0825345,-7.905744458,SiO2
mp-778250,3.7593,-3.008260116,2.918816981,0.042618158,-200.2266032,-5.005665079,Li3FeF6
mp-770733,3.0555,-2.564350219,2.958994356,0.025518044,-202.8453675,-6.338917734,Li2AlFeO4
mp-555770,5.0051,-1.583397819,2.525272564,0.005373881,-238.8616265,-5.428673329,RbH4SNO4
mp-22052,1.1259,-0.98839518,4.523611066,0.011215658,-55.1059678,-3.936140557,Zn(InS2)2
mp-773596,0,-1.391893649,2.930002938,0.042300158,-127.6085822,-4.253619407,Na7(CuO3)2
mp-11947,0,-0.251590808,6.463472374,0,-12.31978621,-3.079946553,LiAlAg2
mp-7352,0.0155,-0.431211124,4.410198037,0,-49.6282198,-4.135684983,MgCuP
mp-849471,0,-2.049253385,4.210661787,0.055949331,-187.4967261,-6.696311646,Li4Mn3Cr2Fe3O16
mp-561012,0.5402,-2.643515446,3.884750675,0.013326282,-350.6865179,-6.743971498,Sr3Cu3(PO4)4
mp-567514,0,-1.04932692,6.836960364,0,-305.1783105,-5.449612688,Ce9Sb16Cl3
mp-5288,0,-0.67686423,5.683015469,0,-37.62200137,-7.524400274,Y(FeSi)2