id,band_gap,formation_energy_per_atom,density,e_above_hull,energy,energy_per_atom,pretty_formula
mp-761645,,,,,,,
mp-505034,1.157,-1.2156232683534491,3.771764728405023,0.0,-47.95321458,-4.795321458,Cs2MnS2
mp-868529,,,,,,,
mp-762785,,,,,,,
mp-505431,0.6193,-0.5611204996111111,3.4994125327239023,0.0,-78.26057438,-3.260857265833333,K2LiInAs2
mp-675759,1.7110999999999996,-3.6886898552810083,7.491386441960441,0.2096832356976872,-365.36753244,-8.496919359069768,Tm10Ti6O27
mp-542660,,,,,,,
mp-24214,5.7255,-2.1927020791121428,2.1199648820904637,0.0021551599999929394,-226.29251037,-5.65731275925,KPH3O4F
mp-755798,2.636799999999999,-2.85035353925,7.8899280042097795,0.03463428981249805,-156.99621713,-7.849810856499999,ZrPbO3
mp-23262,2.1773,-1.6523517087499997,9.06033259031871,0.0,-115.08635084,-5.754317542000001,Bi2O3
mp-769912,,,,,,,
mp-766669,,,,,,,
mp-778615,,,,,,,
mp-715008,,,,,,,
mp-19956,2.0754999999999995,-2.8782004442771423,5.978945541520568,0.0,-81.78915008,-5.8420821485714285,Ba2InO3F
mp-505772,4.1979,-1.8040285500333335,2.4439981504706734,0.0,-417.45340699,-5.797963985972222,Rb2NaH5(CO4)2
mp-10969,2.3242000000000003,-0.09714903368999916,4.5963166871713295,0.0,-26.42651311,-6.6066282775,CdCN2
mp-1216,3.4728000000000003,-3.636993463958333,11.722991293840387,0.0,-13.05924767,-6.529623835,YbO
mp-600186,2.5604,-1.4260336407881766,3.6237074893731225,0.0,-109.92981144,-3.926064694285714,Cs2MnBr4
mp-773514,1.1609999999999998,-1.4126923978472223,3.0654797628197747,0.4155215166666686,-121.06125718,-5.044219049166666,Li2CoO3
mp-19277,1.9138,-2.174050579910713,3.1785920254973234,0.027577403571438446,-189.28010976,-6.76000392,VSO5
mp-27355,2.8493,-2.222401934226,7.652770063044124,0.0,-102.49581803,-5.1247909015,Pb2OF2
mp-558362,3.6236,-2.882336845833333,3.5985412222952364,0.0,-181.49156031,-6.481841439642857,CaMgGeO4
mp-775516,,,,,,,
mp-756639,3.6883,-3.2779476780222216,3.5432429037185837,0.009748928981484715,-164.30728796,-6.0854551096296285,Li2NbOF5
mp-772435,2.6472,-2.560294105625001,3.107285114012487,0.19073158354166966,-150.30347868,-6.262644945000001,Li3Al2FeO6
mp-777905,,,,,,,
mp-778316,,,,,,,
mp-560174,4.8271000000000015,-2.57450389817602,2.6983903021514952,0.0,-744.5246798999999,-6.6475417848214295,NaZn(PO3)3
mp-541081,4.8202,-2.153466147423541,2.3843073982126564,0.021360259630888837,-179.18397333,-5.5994991665625,NaMg2H3(SO4)2
mp-850409,1.5206999999999995,-2.46195442197,4.18018973815758,0.06847109050000189,-173.75818241,-5.7919394136666655,Fe2OF3
mp-767876,,,,,,,
mp-767453,,,,,,,
mp-540152,,,,,,,
mp-622170,,,,,,,
mp-17481,4.2121,-3.2596233389722213,6.00145439967494,0.0,-234.41695506,-7.813898502000001,Mg4Ta2O9
mp-29892,0.9743999999999992,-1.9703407334722207,5.859428991347286,0.0,-143.81066832,-5.992111179999998,LiSb3O8
mp-2895,4.6395,-3.231705845238095,3.1164402203424317,0.0,-192.88714112,-6.8888264685714296,Mg2SiO4
mp-758916,4.130699999999999,-1.723750312696696,2.6596308293326136,0.003989322750004297,-382.27657911,-5.97307154859375,Ga2P3H12(NO4)3
mp-19417,2.0201,-2.822481568749999,4.628389745015796,0.012041215000010652,-161.92301652,-8.096150826,TiFeO3
mp-643276,3.16,-0.4416084066975756,2.659883237668835,0.0,-83.8259058,-3.8102684454545455,LiMg2H7Ru
mp-764237,,,,,,,
mp-863919,,,,,,,
mp-23493,1.4876,-1.347942202941177,4.913361849695606,0.0,-171.78425698,-5.0524781464705875,Ce(IO3)4
mp-853254,,,,,,,
mp-695316,4.1827,-1.9677840157363642,2.234505448903908,0.0,-238.07073309999998,-5.410698479545455,Ca2AlH10BrO8
mp-771273,,,,,,,
mp-633671,,,,,,,
mp-850957,3.0984,-2.5318165482499997,2.4561375038065245,0.040219419777781866,-182.72070043,-6.090690014333331,Na6Ti2O7
mp-28257,5.2712,-2.1380853385637497,1.932725519504916,0.0,-152.89677566,-4.778024239375,SOF2
mp-37263,1.1018,-1.487428405714286,6.344535365400658,0.030160290357144067,-69.04190343,-4.931564530714286,Ca(NdTe2)2
mp-752849,0.9987,-2.5457413709469705,7.433625053746804,0.0,-156.16028355,-7.098194706818182,Y2Pb2O7
mp-6571,0.4792000000000001,-1.9625407757954556,4.5367412927700705,0.0,-266.57120174,-6.058436403181817,BaCuAs2O7
mp-996960,1.4335,-0.6045307558033333,3.9455093578684064,0.039602360041666174,-43.38891041,-5.42361380125,AgNO2
mp-574620,2.1117,-1.4182038005492696,4.652519032813233,0.0,-55.23578974,-4.602982478333334,CsYZnSe3
mp-30252,0.6713999999999998,-0.27698987021739124,3.893978362426589,0.0,-69.39999956,-3.0173912852173914,Na10CaSn12
mp-6704,0.5786000000000002,-2.973604617916666,7.020636659514572,0.02107152083333741,-127.09046565,-7.060581425,BaNd2CuO5
mp-777105,,,,,,,
mp-777474,3.2260000000000004,-2.5301440639877786,2.940907458694238,0.3904446816666685,-114.03313925,-4.751380802083333,LiFeF4
mp-766336,3.4085,-1.6038557161764704,3.9826292245497177,0.09437003499999984,-167.1208648,-3.2768797019607843,Ba6Ca11I34
mp-31309,1.4736999999999998,-0.9148133717968752,4.218304407043706,0.0,-115.06635396,-3.59582356125,RbInSe2
mp-697855,2.7567,-2.358644450874741,3.082796514067136,2.1350662291723417,-324.15854099,-7.046924804130435,Li2Cr3(P2O7)2
mp-541002,,,,,,,
mp-6031,3.3852,-1.0173925487761732,2.6507385131379553,0.009167973703702259,-146.08041752,-5.4103858340740745,Li16Nb2N8O
mp-540277,,,,,,,
mp-558466,2.4875000000000003,-1.6797477825240907,3.131044194940153,0.0,-160.17121583,-3.6402549052272732,AsS(BrF2)3
mp-695878,,,,,,,
mp-17213,2.3435,-1.7582887590804597,4.790552120534055,0.0,-161.5246607,-4.486796130555557,Cs4SnO4
mp-27556,3.319,-2.8437411650862074,4.5883243477152185,0.0,-303.61927715,-7.59048192875,CsNbO3
mp-557691,3.4153,-3.853716628083333,6.37868655428978,0.029584801916668013,-125.63278127,-8.375518751333333,La2O3
mp-776023,2.5256,-2.5291182115,4.724748636060722,0.026798615416666397,-253.69744719,-6.34243617975,CdSiO3
mp-761463,,,,,,,
mp-755318,3.6721,-2.95314682528,3.1553723325948786,0.05475818749998762,-59.75224801,-7.46903100125,ScHO2
mp-989608,3.0865,-1.8164125580422072,3.132620242387392,0.015445455999999691,-33.44876725,-3.344876725,Cs2NaAsCl6
mp-867689,0.7925999999999993,-0.8841415749305556,3.51375932194228,0.07838627611110915,-24.26708823,-4.044514705,LiCuS
mp-540704,,,,,,,
mp-19566,,,,,,,
mp-28102,3.2217,-2.2448555568749997,5.15324463996817,0.0,-210.87967278,-5.8577686883333335,Ba3Te4O11
mp-707732,4.5536,-2.1033421153163525,2.194002160187825,0.0630494706117144,-278.61795839999996,-5.928041668085108,Na4ZnP6(HO2)12
mp-720312,4.9795,-2.4683868403763336,2.2234830749218983,0.0029982870361697773,-1100.52000558,-6.878250034874999,Na2B5H3O10
mp-763747,,,,,,,
mp-690544,0.5743000000000005,-2.1412542946428568,5.684689240639937,0.0,-175.05567527,-6.2519884024999985,Ga2FeO4
mp-557260,4.2682,-2.834380872833,4.0149804254782895,0.0,-190.10477163,-4.752619290749999,RbSb2F7
mp-770605,,,,,,,
mp-770884,3.8079,-2.0700126804340284,2.883991877440582,0.09252508552083416,-150.13942164,-6.255809235,Li2SnCSO7
mp-998430,1.4536,-0.9293997455862067,3.332149689756131,0.01862250374999963,-51.464448100000006,-2.573222405,CsInI3
mp-554142,3.7890000000000006,-1.7078754869444444,4.9730925698714685,0.0,-103.49797137,-5.7498872983333325,Ge(TeO3)2
mp-616564,1.3654000000000002,-1.2585881799999998,5.144900062287246,0.0,-86.03683824,-4.779824346666667,RbPbIO6
mp-3788,3.7469,-3.473420360451389,3.1573952392124607,0.0,-176.14497436,-7.3393739316666675,SrAl4O7
mp-29959,0.8468,-0.2316826340729165,5.7524701061063865,0.0008055943777787178,-41.37438233,-4.137438233,TlBSe3
mp-6929,3.323,-2.5226577307954554,3.4359265764414637,0.0,-70.78483491,-6.434984991818182,Ca2As2O7
mp-768092,0.0,-2.510143946836166,2.536755827117936,0.0562926921875091,-236.51208254,-5.9128020635,LiVSO4F3
mp-10191,1.4771,-1.6819908561011905,5.9911784880451,0.0,-72.79275772,-5.199482694285714,Lu2MgSe4
mp-771043,4.0397,-3.854626136628789,5.226472768749074,0.06444453170454523,-408.59238543,-9.286190577954542,Y2Zr2O7
mp-541537,3.4920000000000004,-2.4791648260625,3.2554968803436477,0.0,-365.75703710000005,-5.7149537046875,K2ZnSiO4
mp-976713,4.7024,-2.4820059438333337,5.478812286003493,0.0,-71.39819954,-5.949849961666667,HoH2ClO2
mp-570084,1.2214,-0.2080672949305556,6.448460471721116,0.0,-45.899311499999996,-2.54996175,Hg3AsSe4I
mp-626221,,,,,,,
mp-570959,0.5863,-1.5105336784821437,6.063462614361074,0.0,-69.35431624,-4.9538797314285725,Dy2CdSe4
mp-554012,4.6494,-1.7631263542649998,1.8859123949670544,0.0,-187.63482949,-4.69087073725,SClO2F
mp-555462,5.0657000000000005,-2.09560674423,2.3814718118233458,0.037814979999996716,-163.48411772,-5.83871849,Al(HO)3
mp-560717,0.7414000000000003,-1.074561232291667,5.508874854918898,0.02674641861111127,-204.4571504,-5.679365288888889,Ag2CO3
mp-765616,,,,,,,
mp-34134,,,,,,,
mp-773079,5.186,-1.7908712716916129,2.0440607773556385,0.003184821330643573,-617.23039297,-4.977664459435483,AlZnH16N(OF)6
mp-23985,3.123,-1.1416337828091112,2.210567776044884,0.0,-139.65686877,-4.655228959,LiH6BrO7
mp-775106,,,,,,,
mp-771809,,,,,,,
mp-764893,,,,,,,
mp-768877,1.7433999999999998,-1.9599139360227285,5.275498133909784,0.05851323681818421,-273.99329919,-6.227120436136364,Sn2Ge2O7
mp-27386,2.7235,-1.0358350285800002,4.945531712808551,0.0013937197058817574,-35.28135425,-2.075373779411765,TlHg5Cl11
mp-780887,,,,,,,
mp-560767,3.5358,-2.8025064269583333,2.9523558488272204,0.0,-79.73941952,-6.644951626666668,KNaTiO3
mp-707508,2.1252,-1.2125052213999994,2.222887007591815,0.04320752035000375,-298.24099105,-5.964819821,Na2H5RuN5O12
mp-19446,3.2632000000000003,-3.1242280113115175,3.4052794983606227,0.009356471833331879,-308.17349316,-7.7043373289999995,CaMn(SiO3)2
mp-556902,3.7612,-2.5069501223560606,3.1787815304237013,0.0,-135.30434818,-6.150197644545455,KLi4NbO5
mp-763704,,,,,,,
mp-566012,,,,,,,
mp-29513,3.2665,-1.4239375595845594,3.8585239187631934,0.0,-94.76346206,-2.632318390555556,CsXeF7
mp-24312,4.9945,-1.5233136752354024,1.8813502164718,0.002423882672413669,-586.54996971,-5.056465256120691,Sr(H9O5)2
mp-697084,2.7263999999999995,-1.1629604899675003,6.474417085482202,0.0,-69.49537082,-4.34346067625,HPbIO
mp-773513,3.9179,-2.7394506688235283,7.576212584234558,0.0469007526470584,-264.94975201,-7.792639765,Er2(WO4)3
mp-561076,1.1964999999999997,-2.476978447687498,4.990060116723276,0.0,-256.86604206,-6.4216510515,La3GaS5O
mp-29628,2.0692000000000004,-1.2625582702777782,2.555284815240159,0.0,-68.99234179999999,-3.8329078777777785,Na4SnS4
mp-568546,2.0779,-0.7331145566666665,4.317624246993549,0.005122106145833971,-272.11423288,-2.8345232591666663,In5Br7
mp-989631,2.0601000000000003,-1.1284138664279992,5.49868797049097,0.0,-181.12451256,-9.056225628,LaMoN3
mp-15549,7.2179,-3.487280460480666,2.8412470141378297,0.00011633883333406203,-102.54280397,-5.127140198499999,K2LiAlF6
mp-779428,3.7468,-3.3548737412878786,5.864647719321313,0.06504712500000043,-158.1854275,-7.190246704545455,Sr4HfO6
mp-698654,1.8083,-2.1036339873726853,2.7112396329421298,0.14892321569444356,-215.75556592,-5.993210164444445,NaMgFe(SO4)3
mp-552857,1.3266999999999998,-2.2849017975,8.3728978644185,0.0,-49.19308418,-6.1491355225,TbBi2IO4
mp-555074,1.5311,-0.4951644124999998,5.859421447001785,0.0017273293055537484,-51.10952168,-2.8394178711111118,Hg3AsS4Br
mp-754060,1.8332,-1.975067493869048,4.0647099504142545,0.012398179285714406,-70.37381408,-5.026701005714286,Li7BiO6
mp-743614,2.6265,-1.5253593584387497,2.507295521684897,0.029101613472212406,-82.48336338,-5.15521021125,MoH2Cl2O3
mp-505400,5.7588,-4.1175681913,4.006625950196308,0.0,-173.49651983,-6.672943070384616,BaZr2F10
mp-763926,,,,,,,
mp-774387,1.4979,-3.14813067808375,3.2663930454104912,0.0021283318750073828,-199.68646494,-6.240202029375,V4OF11
mp-695278,2.9983000000000004,-3.3730192047222216,6.021447165137995,0.11218288587499714,-467.09088221,-7.784848036833334,Ba3La9Mg7Nb5O36
mp-17998,0.8186999999999998,-1.8097788060714284,6.525833743871361,0.0,-185.31038149,-6.618227910357143,Ca(RhO2)2
mp-11055,0.7471999999999999,-0.30673690396551745,4.330040856719611,0.009531273124999906,-88.01873856,-2.75058558,CsSn
mp-3733,4.4407,-2.723872651037143,6.63935770474938,0.0,-132.84811119,-4.744575399642857,BeTl2F4
mp-25698,,,,,,,
mp-540627,2.7278,-1.808918611055556,2.2868448065707727,0.019977448623193617,-291.2088705,-5.392756861111112,K2Ba(SO)12
mp-698611,2.0996,-1.6773407041396111,8.283521574588724,0.026520880357136182,-452.15044017,-5.8720836385714295,Bi28Mo2O47
mp-540761,,,,,,,
mp-773263,,,,,,,
mp-672248,2.6094,-1.422402036621964,2.416226923809004,0.0,-121.97613297,-3.8117541553125,TaAsPCl13
mp-554905,4.089499999999999,-3.120393296923076,3.0084243377238464,0.005900071410253282,-376.23812766,-7.235348608846151,CaZnSi3O8
mp-9273,1.1054,-0.4662864386250001,6.198840828640169,0.0,-25.14113214,-3.1426415175,K3Sb2Au3
mp-761469,,,,,,,
mp-771798,,,,,,,
mp-722272,5.0185,-1.1618089267073652,1.5679272113772391,0.0,-374.59710621,-6.041888809838708,Li2H12C3SN6O7
mp-705484,,,,,,,
mp-743731,,,,,,,
mp-777730,4.0047,-2.666008983070987,2.7353949644582736,0.062193201574075374,-794.86213859,-7.359834616574074,Li3BiB8O15
mp-776840,,,,,,,
mp-775715,,,,,,,
mp-773982,1.7749000000000006,-2.279651400625,4.7584179327559015,0.020263891428570883,-89.3706538,-6.383618128571428,Mg3Fe4O7
mp-766869,,,,,,,
mp-7610,5.189699999999998,-3.039024868541666,2.8623439506132633,0.004953311718750797,-52.53555992,-6.56694499,Li2CaSiO4
mp-3626,3.4179000000000004,-3.663230366083333,5.234583648502662,0.008195151500000719,-165.16132048,-8.258066024,SrZrO3
mp-778627,,,,,,,
mp-13738,4.316,-2.557766991956808,3.347342701230694,0.0,-368.24475937,-6.575799274464287,CsCd(PO3)3
mp-558358,5.8194,-2.9802748269117654,2.4522319846475487,0.0,-540.78853332,-7.952772548823531,Ca(B3O5)2
mp-556841,0.8731,-2.5448593648750006,5.697458291605615,0.02532035491666651,-390.65198312,-6.5108663853333315,LaTmS3
mp-694876,1.8931,-3.500507106583333,4.968246481071031,0.013403057306305756,-486.49659519999994,-8.108276586666667,NaSr2LaTi4O12
mp-721896,3.2946,-0.4823074115456247,1.426174041873738,0.006306007812500347,-181.68843999999999,-5.67776375,H4CSN2
mp-7181,2.0508,-3.3656694533602725,6.769369317290655,0.0,-136.15506266,-8.50969141625,CsSr2Ta3O10
mp-19165,3.6492,-3.14277025234375,3.2311720643868247,0.0,-488.35923686,-7.6306130759375,BaFe(Si2O5)2
mp-11692,0.8267000000000002,-0.8078091444444451,4.513615425500722,0.0,-85.01601668,-4.723112037777779,Ba3(SiAs2)2
mp-697283,1.9874,-0.7229573445813325,2.660590683420619,0.0,-318.06913509,-5.3011522515,H8W(S2N)2
mp-19686,,,,,,,
mp-25152,,,,,,,
mp-27407,3.6699,-3.1896329596767234,2.608870392623812,0.006069495431035854,-395.68658178,-6.822182444482758,Ca12Be17O29
mp-559939,5.4349,-2.991628360515872,3.722038255638576,0.0,-260.57676244,-7.23824340111111,Ba(PO3)2
mp-16970,4.4261,-2.9149983340277776,2.4047911205318924,0.0,-243.73815868,-6.770504407777778,Na2Si2O5
mp-9274,1.2214999999999998,-0.4618277853124999,6.424546840287754,0.0,-24.71586829,-3.08948353625,Rb3Sb2Au3
mp-558523,3.5308,-2.0499822300669046,4.052757870352441,0.0,-106.01024864,-4.417093693333333,PAuClF3
mp-778683,,,,,,,
mp-554805,3.4292,-2.2482189961594528,3.975229089752685,0.0,-352.00283134,-5.5000442396875,Sr3Se3(ClO4)2
mp-567225,,,,,,,
mp-769578,0.22950000000000004,-2.092560493881173,2.513963030602353,0.12569143064815158,-374.49250747,-6.93504643462963,Li4V2C4SO16
mp-850359,1.4185,-1.868970404930556,4.574831759179944,0.09271395927083237,-144.4980104,-6.020750433333332,Li5Fe5(CoO6)2
mp-18199,1.2877999999999998,-1.5562160407812495,4.994862226738105,0.0,-190.38855606,-5.949642376875,Sr3TaAs3O
mp-774085,,,,,,,
mp-781504,2.5196,-2.487206361602183,2.8619719740179965,3.222290310329859,-327.40239808,-6.820883293333334,Li2CrP2O7
mp-540005,,,,,,,
mp-580631,5.0878,-2.5074562468422075,3.0531871476507018,0.0,-40.13323812,-4.013323812,Cs2KTbCl6
mp-764354,1.652,-2.4734908822474058,3.026958029730912,0.2390354953571352,-135.22786407,-4.829566573928573,LiMnF5
mp-765120,,,,,,,
mp-510529,3.2207000000000003,-2.8304421274166662,3.3060229316361687,1.4497088025555571,-296.69666288,-7.417416572,LiCr(SiO3)2
mp-779077,0.8887,-2.2187537278472207,3.5539719771192617,0.11504952424242275,-450.34394877,-6.25477706625,Li24TiCr11O36
mp-561256,3.8917,-4.008822599839001,4.657581544921276,0.010470151499999858,-129.18037354,-6.459018677,Ba2TiOF6
mp-19640,,,,,,,
mp-561287,,,,,,,
mp-556878,3.3391,-2.235566479977677,6.8768840323352025,0.0,-104.25030195,-6.515643871875,BiPPbO5
mp-779522,5.3596,-3.1464726981860913,4.343305157608527,0.038083678114045234,-291.58918709,-7.673399660263157,Ho2P4O13
mp-776593,4.4787,-3.99212346775,7.321153448703378,0.06345328087500413,-174.20413348,-8.710206674,LuScO3
mp-770087,,,,,,,
mp-28127,1.7624,-0.9700823275892856,2.0103497475745438,0.0,-107.11988655,-3.825710233928572,Na2S5
mp-569405,3.6983,-0.15682579361666646,0.8115989424955137,0.01160906945547513,-449.89753897,-4.686432697604167,B3H5
mp-769676,,,,,,,
mp-549158,0.2439,-1.4921686493750004,6.1377177618675685,0.005294474687499218,-42.62179187,-5.32772398375,InCuO2
mp-771213,,,,,,,
mp-23193,5.0442,-2.24857100813,1.9035703753252475,0.0,-6.86139194,-3.43069597,KCl
mp-761383,,,,,,,
mp-768234,4.0102,-3.975998854531249,6.678123696334629,0.02322186882812538,-291.46206864,-9.108189645,La2HfO5
mp-7895,1.7601,-1.233563691875,3.61663119325284,0.0,-15.85879385,-3.9646984625,Rb2O2
mp-555001,,,,,,,
mp-743771,3.4528,-2.8242908230000014,3.5316061859148253,0.008947823488057338,-637.83158443,-7.0870176047777775,Ca8V7ZnBiO28
mp-604245,6.5456,-1.6498860820653334,1.6569061851355913,0.009753332583325223,-303.97096919,-5.066182819833333,BeH8(NF2)2
mp-22003,4.0245,-0.3914217505349997,1.7981378631030491,0.0,-26.73532657,-6.6838316425,NaN3
mp-753183,5.3461,-2.0540641254254166,2.2150503361581912,0.03573264666666809,-137.10832313,-5.7128467970833325,CaH4SO6
mp-32047,,,,,,,
mp-24949,,,,,,,
mp-866728,,,,,,,
mp-776993,,,,,,,
mp-6340,5.3683999999999985,-3.2041505124166667,3.0712527885701144,0.03363467455555469,-148.03355586,-7.401677792999999,LiAl(SiO3)2
mp-567145,,,,,,,
mp-560627,,,,,,,
mp-769746,,,,,,,
mp-23947,2.6053,-0.28207789474738204,3.1133484759112666,0.0002521830555552995,-92.08194957,-2.5578319325,Cs3MgH5
mp-989551,4.041600000000002,-2.6144590363806666,6.806171745194516,0.0,-44.05180359,-4.405180359,LiTl2InF6
mp-565765,,,,,,,
mp-23505,1.9851,-1.0184839306666669,3.4824469253276087,0.02318623777777784,-24.35201344,-2.705779271111111,K2TeBr6
mp-554320,0.7152999999999996,-1.915185686899352,4.4069653714840324,0.012590874999991895,-143.93249288,-6.54238604,P2Pd2O7
mp-555259,1.9725,-2.26663285,6.8963623774488125,0.0,-329.82207748,-6.871293280833334,UTe2PbO8
mp-27126,1.9223,-1.6779108157727318,2.558654789176936,0.0,-61.95321384,-4.765631833846154,Na2Mn3Cl8
mp-705676,0.5684,-1.1898340455384615,2.440282695986272,0.4812859480769234,-66.80771727,-5.139055174615383,K4MoO8
mp-554134,1.5861999999999998,-0.7298602365625007,1.2825756291935109,0.04818026750000026,-17.85001064,-4.46250266,SnS
mp-601867,0.8691999999999998,-0.7687163935317464,4.517936095267076,0.0,-169.25237375,-4.701454826388889,Ba3(SnP2)2
mp-778357,,,,,,,
mp-690711,4.2692000000000005,-1.9680073094764283,4.501158682457884,0.004219772031245128,-187.92452982,-5.872641556875,TlP(HO2)2
mp-35327,5.0623000000000005,-0.14764931387714292,1.2398378325211876,0.34263151892857024,-112.63369409999999,-8.045263864285713,Al(CN)3
mp-19482,2.5730000000000004,-2.5631253830494507,2.846057792483577,0.08264499006414194,-352.54931053,-6.779794433269231,Na2V(PO4)2
mp-765367,,,,,,,
mp-27180,2.6373,-2.2331181043750004,4.890179237008503,0.0,-66.30965572,-5.525804643333332,NdSBr
mp-25030,,,,,,,
mp-762774,,,,,,,
mp-1020624,5.359,-2.8522864670454537,2.151033588864034,0.0017284164393522874,-327.75580698,-7.448995613181817,NaBe(BO2)3
mp-765143,,,,,,,
mp-769368,2.0456000000000003,-1.5283194654687495,4.109666416553832,0.0013283793749998554,-263.0238672,-4.109747925,Rb4SnO3
mp-780143,,,,,,,
mp-560104,3.7969,-2.770435545677083,5.444296814743722,0.0,-247.10409389,-7.7220029340625,LiTaGeO5
mp-755705,2.3508,-1.5888029802380956,4.334281303258114,0.027686217499999888,-50.73430909,-3.623879220714286,SrLaI5
mp-637206,2.5425,-1.504020918983393,3.5376926401442543,0.0,-106.68581611,-3.810207718214286,AlBiSeCl4