id,band_gap,formation_energy_per_atom,density,e_above_hull,energy,energy_per_atom,pretty_formula
mp-676711,1.2211,-1.5166503369214286,3.0204818067100985,0.4014050463857153,-113.88032765,-4.067154558928571,CIF5
mp-770076,,,,,,,
mp-557839,,,,,,,
mp-18960,2.9661,-3.2201650849999988,5.7915424526882875,0.0,-96.54286671,-8.0452388925,ErVO4
mp-778057,2.1033000000000004,-1.7433245612499997,3.814224549938378,0.0,-190.59755787,-4.76493894675,Na2SnO2
mp-765394,3.2172,-2.1713327164625857,3.558665028301645,0.1489561024999997,-344.96017124,-6.160003057857144,LiNiPO4
mp-754871,0.34719999999999995,-1.8612619868269245,4.199307601391373,0.09729877881410688,-151.24885477,-5.8172636450000015,Na3BiAsCO7
mp-763945,,,,,,,
mp-542522,1.1683,-0.5277788916129029,6.216876087873138,0.02743080215053784,-102.13828654,-3.294783436774193,Bi14PdBr16
mp-540331,1.5611,-2.464099525642641,2.4035310422151386,0.10915112158335294,-252.68939941,-7.019149983611111,LiMn(PO3)4
mp-770915,,,,,,,
mp-782707,,,,,,,
mp-644295,3.6746,-3.1494889832812514,4.289201500732402,0.010358540312498832,-123.17782841,-7.698614275625,CaZrGeO5
mp-28967,0.9005999999999998,-1.217782376785715,4.917148767828718,0.0,-69.37676163,-4.955482973571429,Ba(PdS2)2
mp-849531,,,,,,,
mp-504729,2.2742,-2.4371759114446743,4.114337251848389,0.0,-37.42517569,-4.158352854444445,Cs2PdF6
mp-759686,5.3607999999999985,-2.975285328318888,2.9913504835179827,0.0072225076282066425,-256.61604524,-7.128223478888889,BeAlSiHO5
mp-7951,0.6304999999999996,-1.7303052240625003,8.352558353460303,0.0,-78.38638751,-6.532198959166667,ThSe2
mp-759288,2.7106,-1.1863693510239997,2.837370544479195,0.10385396574999994,-99.67302276,-4.983651138,GaH5(NF)2
mp-769009,4.1941,-2.7753480261153336,2.6677218489396144,0.08972849050000065,-187.33781366,-4.6834453415,Ba2YCl7
mp-762939,,,,,,,
mp-540459,,,,,,,
mp-9364,2.2840000000000003,-2.1442696467708333,4.285754343635545,0.0,-21.22127487,-5.3053187175,RbSmS2
mp-850280,1.7322000000000002,-1.6534143791666664,3.32717999989735,0.055241022999998,-64.76528752,-4.317685834666666,Na8SnO6
mp-696701,3.3043000000000005,-1.5038631601575003,5.9231728727476325,0.0020856756249996167,-73.86918119,-4.616823824375,HPbClO
mp-12623,1.5046000000000002,-2.873229644126667,4.868593644816836,0.0,-60.03407234,-5.002839361666667,BaPdF4
mp-779167,,,,,,,
mp-764097,,,,,,,
mp-542863,3.5327,-3.4913673727480012,3.1703537196352114,0.0,-448.25798218,-7.470966369666669,Ca7NbSi4O17F
mp-695830,0.5800000000000001,-1.3958203554072726,2.8675624631929213,0.050874617727272316,-208.07714044,-4.729025919090909,Na2Cu(HO)4
mp-556585,2.7675,-1.8872849609983915,3.7918245370032633,1.1047118666666682,-63.93524588,-5.327937156666667,MnF2
mp-996995,0.3077000000000001,-1.4449897691121265,6.11957469246801,0.0,-98.33870156,-6.1461688475,MnAgO2
mp-566678,,,,,,,
mp-766064,,,,,,,
mp-561454,1.4488,-1.7996618253541663,3.881448903224864,0.0,-133.78305175,-5.574293822916666,KAu(SO4)2
mp-28760,2.2215,-1.2372764795416664,2.5794239131154058,0.008080454999999986,-37.1030093,-3.0919174416666664,KRbS
mp-14439,1.4852,-1.4107651742499996,3.5015627149457558,0.0,-312.03169018,-3.90039612725,K5TlO4
mp-721707,4.3668,-0.873755492968125,1.6733860352754666,0.00784764984373254,-422.58280989,-6.60285640453125,H6C3N4O3
mp-37906,2.2707,-0.7670832541266664,2.3876966054878963,0.0,-13.75954072,-4.586513573333334,LiMgN
mp-565267,,,,,,,
mp-9512,5.4897,-3.347188939579301,3.4637263172999733,0.007970938166662833,-428.08585099,-7.134764183166666,SrAl2P2(O4F)2
mp-5077,0.7063999999999999,-0.5782497458333338,3.2813841976098144,0.0,-11.57206728,-2.89301682,NaLi2Sb
mp-566386,,,,,,,
mp-643941,4.691000000000002,-2.670172408405,2.8715356521993485,0.01706953083331619,-209.12206796,-6.53506462375,CaAl2Si(HO2)4
mp-720583,4.544,-2.390835313399334,2.270355068988387,0.0,-384.14600898,-6.402433482999999,Na3B3H2O7
mp-684743,1.5436,-1.1463606999689657,2.9730035977905738,0.3158878169827588,-174.60606543,-6.020898807931035,GaGe5H6C4NO12
mp-542314,1.6136999999999997,-2.3052160760937497,6.4633981502626074,0.010653019999999458,-51.61373904,-6.45171738,NdCuSO
mp-600049,5.6466,-3.2454146543749998,1.8010675202198676,0.032583014791665484,-378.41544889,-7.883655185208332,SiO2
mp-8179,0.4015,-1.4691336160416668,8.082191527513338,0.03466176968750023,-37.27688235,-4.65961029375,LiTlO2
mp-644097,2.7019,-0.4338602968714283,3.3925375616510256,0.0,-99.60100818,-3.5571788635714285,BaAlH5
mp-767885,,,,,,,
mp-622624,2.1846,-2.11187951225,3.978050587857045,0.0,-385.78944443,-6.429824073833332,Rb2Cr2As2O9
mp-557417,3.3000000000000003,-1.9039300585890908,2.653801114883769,0.0,-181.48086333,-4.124565075681819,As2Cl3OF5
mp-23614,2.4637,-2.69091835235119,6.79863263428782,0.0,-211.09754049,-7.539197874642857,SrNb2Bi2O9
mp-28657,4.9037000000000015,-2.1608695537676192,2.1839599041329416,0.01310366571428645,-48.72566542,-3.4804046728571434,Na2MgCl4
mp-2095,0.6675999999999997,-0.705433725,4.371662601424255,0.0,-59.67255824,-2.9836279119999998,Rb2Te3
mp-7193,4.8454,-3.7336402544318186,6.1577702469601245,0.0,-90.67838343,-8.243489402727272,Lu2Si2O7
mp-753947,4.857900000000001,-3.0950295127799987,7.973282596837758,0.011690435729168058,-57.26427234,-7.1580340425,LuHO2
mp-565570,,,,,,,
mp-10552,1.5020999999999998,-0.5495885540729162,3.819179293362484,0.002132947183334011,-83.58240767,-4.1791203835,RbBSe3
mp-12902,0.9043,-0.8995846608333329,7.457798879279085,0.0,-34.56978872,-4.32122359,ErAgTe2
mp-771182,,,,,,,
mp-4360,3.513,-2.696392754714,4.226041541665185,0.0,-39.92407992,-3.992407992,NaCdF3
mp-617632,1.9759,-1.9046182171006951,4.824773485115418,0.0,-138.84881935,-5.785367472916668,La3AgGeS7
mp-761408,,,,,,,
mp-764053,,,,,,,
mp-771948,3.7824,-2.9050015226415384,3.4902987374842733,0.018785007307694283,-238.97039272,-4.595584475384617,Ba3LaCl9
mp-770857,1.1554000000000002,-1.8531996166176463,5.672920136162255,0.04628262058822852,-425.47493447,-6.2569843304411785,V(SbO3)4
mp-556549,2.2745,-1.6286698927499998,8.031755139316429,0.023681816000005185,-114.61271452,-5.730635726,Bi2O3
mp-23586,1.5339,-0.5665804893399999,6.390795120138622,0.0014482137499989278,-59.62098207,-2.1293207882142857,Hg6S4Br3Cl
mp-24165,3.9961,-1.7091615564167086,2.4397818355512086,0.0092727571666682,-104.22634683,-5.2113173415,Li2H2SeO5
mp-7739,4.7376,-3.6430864380155565,5.230953202151589,0.026741440000000342,-46.40848101,-5.156497890000002,Ba2ZnF6
mp-764318,1.7192999999999998,-2.662276613869047,2.89139777311885,0.00042617636360731126,-469.85113329,-7.118956565,Li2VFe(P2O7)2
mp-19410,2.6233,-2.2900194535714284,5.086540586495294,0.0,-99.10470719,-7.078907656428571,ZnCr2O4
mp-850460,,,,,,,
mp-765654,,,,,,,
mp-778548,,,,,,,
mp-764337,,,,,,,
mp-28353,0.5388000000000002,-0.7104150835416666,4.048151419732154,0.006700903125000046,-141.03249845,-2.9381770510416665,NaTe
mp-6709,4.1370000000000005,-3.435034163669871,4.397013272383912,0.0,-414.39846603,-7.969201269807693,Ca3La3(BO3)5
mp-1019805,5.5005,-2.0772455674416674,2.1339257239287863,0.0,-490.66390787,-6.1332988483749995,KB(S2O7)2
mp-770873,2.8669,-3.2828196380555554,8.706596561106442,0.03850319944444358,-291.16525506,-8.087923751666667,Ho2WO6
mp-588,4.705,-2.9511418433925005,4.242093572212571,0.0,-38.18861539,-4.77357692375,GaF3
mp-629690,0.5728999999999997,-0.8100119985227278,6.836898315844732,0.0,-97.31734519,-4.423515690454545,Bi2(PbS2)3
mp-624130,,,,,,,
mp-16433,0.0,-2.7782283806944443,4.410677109861881,0.03349105740740832,-112.57497616,-6.254165342222223,Ca2Ga2O5
mp-752415,1.6869999999999998,-3.1215392334225016,3.744802838974052,0.06153407124999965,-64.99868609,-8.12483576125,NbO2F
mp-699482,4.2389,-1.4911529876013887,1.4714049773245603,0.014564073171298375,-371.04221541,-5.153364102916666,Na2H20CO13
mp-559940,1.6836,-1.1795635868189998,1.7907785422606068,0.010368148595332638,-151.85107792,-3.796276948,AlS2NCl6
mp-17777,3.9034,-2.8635058356915866,4.325326721111893,0.0,-269.85017751,-6.4250042264285705,Sr5As3O12F
mp-556906,6.9875,-3.3056687725847618,2.5044336382843904,0.0075284623511899795,-283.87272594,-5.069155820357143,Na3LiBe2F8
mp-27852,1.9068,-0.5723714430742858,6.844129233575129,0.0,-27.42358195,-1.9588272821428567,Hg3(TeCl)2
mp-774416,0.4184,-2.7565810126890744,2.739059415507044,0.05076342977206672,-259.42464684,-7.6301366717647054,Ti3Cr(PO4)6
mp-764227,,,,,,,
mp-22895,1.1363000000000003,-0.1468129174999997,5.7538923134784445,0.006761917499999992,-5.91684157,-2.958420785,CuI
mp-505318,,,,,,,
mp-29492,2.6168,-1.3321162518333334,3.538569644270996,0.005009247333335409,-306.71224719,-5.111870786500001,S2I2O11
mp-849370,,,,,,,
mp-559452,4.3383,-2.5802559174255952,2.6320618606775708,0.0,-756.36822424,-5.909126751875,Na5Li(PO4)2
mp-540885,2.8701,-1.334194599577856,1.6599363661566633,0.013100366093754978,-606.94900745,-4.741789120703125,Na3PH16(SO2)4
mp-764535,1.4547,-2.3516321887596896,3.1902527839938912,0.05932415886628739,-308.06842538,-7.164381985581397,Li3Fe8(BO3)8
mp-566090,,,,,,,
mp-14116,0.7321,-0.9752979606250004,6.7659495598721255,0.0,-23.83023901,-5.9575597525,CuRhO2
mp-762896,,,,,,,
mp-28857,2.6938000000000004,-1.061511075,6.2274503247757815,0.0,-167.15280067,-4.643133351944446,Pb(IO3)2
mp-558340,3.2922,-3.2367765153199994,6.018727012379067,0.0,-135.13021511,-7.507234172777778,Nd5As2ClO10
mp-540995,3.9847,-3.388406106858148,3.540338576414764,0.0,-313.01823649,-5.796634009074074,Rb5Nb3OF18
mp-780915,,,,,,,
mp-680158,2.8471,-2.3673664615944454,3.642597027253071,0.06801625461111005,-586.1392306,-6.512658117777778,K2Ti(GeO3)3
mp-556246,2.611800000000001,-2.027459848447144,3.7248154401840448,0.0,-166.15402083,-5.9340721725000005,La3Si2S8Cl
mp-6065,0.7278999999999995,-2.626978158583333,6.0539172065052576,0.03900218312499959,-62.27982641,-6.2279826410000005,Sr2GaSbO6
mp-867322,1.7612000000000003,-1.8930869825173613,4.8007485560697765,0.0,-139.25318001,-5.80221583375,Pr3SiAgS7
mp-675978,3.8347,-2.7881095546306245,5.308307544905088,0.10593921446874964,-74.11585138,-4.63224071125,K2Bi3F11
mp-752525,1.7692,-2.12184338622,4.631411294525983,0.0926207468750002,-64.27970289,-4.017481430625,LiAgF2
mp-763380,,,,,,,
mp-23260,3.4431000000000003,-1.7980197241666669,4.8993851114893365,0.0,-41.44419253,-3.4536827108333337,BaI2
mp-761337,0.6819999999999999,-2.583532840416667,5.124997575659389,0.07057395766667263,-209.90513599,-6.996837866333332,SrCrO3
mp-559307,1.5138000000000005,-0.3461989573969788,3.729595424724692,0.005829036514422015,-213.76938679,-4.1109497459615385,Cu3P4(SI)3
mp-761401,1.2468,-2.5017438886054424,3.419607246855929,3.0605892857142845,-98.91425056,-7.065303611428571,LiCrPO4
mp-626680,2.3351999999999995,-1.5239764819480002,3.385648190934757,0.0004583850000017264,-113.30793484,-5.665396742,Fe(HO)2
mp-18365,1.0328000000000002,-0.4079627665625001,4.442215353537282,0.0,-86.04465301,-3.585193875416667,RbCuSe4
mp-556500,1.6086,-1.0890160695214288,2.247697035573841,0.0,-53.51460331,-3.822471665,NClOF4
mp-21575,0.6879000000000004,-1.5522950939062496,6.2299890747864985,0.0,-214.37120388,-5.359280097,Pr3InSe6
mp-633655,,,,,,,
mp-779098,,,,,,,
mp-755020,3.5534000000000003,-1.5784234629629632,3.755092966385309,0.08836678444444779,-58.07654456,-3.2264746977777783,SrCa2I6
mp-675678,1.5015,-1.3938103486979159,6.452591200343874,0.08574332624198089,-134.65709166,-5.17911891,Nd4Ag2Se7
mp-8911,0.2627000000000006,-0.32667883548611104,5.922079595989714,0.023632556666673743,-22.7695242,-3.7949207,CuAgS
mp-19651,,,,,,,
mp-41734,4.1847,-3.044043383839286,2.1431681020454016,0.0,-337.02133175,-6.877986362244897,Na8Al6Si6SO28
mp-764030,,,,,,,
mp-777053,0.5507999999999997,-2.0585084949468633,4.857051871261511,0.05836877053571321,-179.09662475,-6.3963080267857135,Li4Mn3Fe2Sn3O16
mp-622558,2.5863000000000005,-2.3636894321590898,5.592732638325804,0.1724200045454518,-301.1933967,-6.845304470454545,DyFeGe2O7
mp-558607,1.8633,-2.1315452730277777,4.362737989089276,0.0,-252.9653753,-6.022985126190476,K3BSb4O13
mp-764508,1.7315,-2.1412289032575758,3.2380543388896768,0.2714905102954797,-303.07123586,-6.887982633181817,LiFe2(BO3)2
mp-3772,1.3457,-0.6233276699107141,4.968850556663656,0.0,-25.30932222,-3.61561746,Cd(GaSe2)2
mp-772624,2.672,-1.4274009553125009,2.9852138059129034,0.0764983724999917,-106.69276308,-6.6682976925,Al2CO
mp-720570,5.2633,-1.6258576592450644,1.6684320027486743,0.010638896931817854,-226.8180548,-5.15495579090909,Na2PH11O8
mp-777580,1.1992000000000005,-2.258024958529412,3.765765043945053,0.07069876441177314,-126.33619077,-7.431540633529411,V5O12
mp-754358,1.8229,-1.360499182890625,4.5372540770558825,0.006188084166666386,-59.80205811,-4.9835048425,ZnSeO4
mp-6761,2.4277,-3.0323686936507936,2.8400417716840307,0.0,-277.74561676,-7.715156021111111,NaTi2(PO4)3
mp-772019,4.2427,-2.8477628892243483,3.1867513239547454,0.0719054156521759,-210.05406088,-4.5663926278260885,Ba5La2Cl16
mp-555598,3.2163,-2.9190356254047614,3.4103487409006727,0.003763809583338329,-280.66058303,-7.796127306388889,KGd(PO3)4
mp-684066,0.222,-2.7217208436930638,2.345676743341081,0.05119779272981262,-330.12777858,-7.176690838695651,Li2Ti(PO3)5
mp-764984,,,,,,,
mp-29398,2.206,-1.2589783550957852,4.629361637520222,0.0,-32.222849100000005,-3.5803165666666663,Cs2HfI6
mp-19304,1.3257,-2.424514651664561,2.7186850206159328,0.13321235365150574,-244.3544701,-5.5535106840909085,K2MnSO4F3
mp-18633,0.31909999999999994,-0.4408460095384612,2.7146474381035324,0.0,-70.24496604,-2.7017294630769233,K8SnSb4
mp-680167,2.3547,-1.3996555399523332,3.5159739333854283,0.011276759499995848,-222.55181438,-5.5637953595,LiMo6Cl13
mp-763625,,,,,,,
mp-772628,2.2652,-2.6035214470138883,2.728698001447397,0.05934017374999634,-332.80862476,-6.9335130158333325,Li3V(BO3)2
mp-644302,3.4362,-1.4887536037091071,2.9291173624729083,0.002065132142857529,-141.80723298,-5.064544035,NaHSeO4
mp-757595,5.745799999999999,-1.2663030854831252,1.9532567170539192,0.07780831573665115,-352.09674503,-5.50151164109375,H3SNO3
mp-7176,2.32,-1.8050546292968743,4.566413067250007,0.0,-20.12858265,-5.0321456625,RbLaSe2
mp-770127,,,,,,,
mp-770612,2.5111,-1.633829464881032,2.146719292766841,0.08519130227678229,-434.78679634,-5.1760332897619055,Li4CrH8SO7
mp-998758,2.1963,-1.859653278964,8.086717827145742,0.0,-129.80158989,-3.2450397472500003,TlHgF3
mp-14636,2.1746,-1.3457872719791668,3.2999812994907654,0.0,-79.10631977,-4.944144985625,Rb2NbAgS4
mp-764404,,,,,,,
mp-650024,2.9624,-2.074315293506944,5.4409772460561605,0.005253330347227525,-315.27008958,-6.56812686625,RbLiBi2(MoO4)4
mp-764442,,,,,,,
mp-530695,4.4577,-4.126710819755264,4.4553727124568345,0.0,-557.73992685,-7.3386832480263156,GdZr3F15
mp-571397,0.6789000000000001,-2.2607058283487658,4.100576690591954,0.0,-396.34927877,-5.215122089078949,Cs3Tb10C4Cl21
mp-19134,2.9385,-2.8834716503084414,3.1742240997160733,0.0,-327.61571345,-7.445811669318181,CaCrP2O7
mp-773505,0.7091000000000003,-2.88753252578125,4.095506341142495,0.08568814914773704,-118.91957336,-7.432473335,Al2CrO5
mp-559093,2.1284,-0.7681282942931548,4.513902077732408,0.0,-211.85905017,-4.413730211875,Tl2BiP2S7
mp-754041,3.1513000000000004,-2.612579366406249,7.321253971877279,1.3639780389843743,-160.47678305,-10.029798940625,Gd2HfO5
mp-680325,,,,,,,
mp-8289,2.7786,-2.7806396396425,3.4240989448969685,0.0,-38.75300788,-4.844125985,SnF3
mp-779318,1.0731,-2.239064549401629,2.9119217273428215,1.3893433444473642,-262.32950582,-6.903408047894738,LiCr2P3O13
mp-777356,1.8283,-2.009196569616228,4.16083661456945,0.09345836661184316,-222.26473703,-5.849072027105263,Li2Bi2(SO4)3
mp-25717,,,,,,,
mp-756389,2.3933,-3.0310784769444448,7.972830931963987,0.04165430833333428,-129.87780215,-7.215433452777778,Lu2TeO6
mp-850495,,,,,,,
mp-685318,2.3058,-1.672479668871952,8.534161408923794,0.0,-950.67222761,-5.7967818756707326,Bi15AsO25
mp-30373,0.5691999999999999,-0.2714440737500001,6.321044948953237,0.0,-4.79730376,-2.39865188,RbAu
mp-763099,1.168,-2.2866362970038883,3.424826859183906,0.43837756749999895,-34.84990073,-5.808316788333332,Li2VO2F
mp-771477,,,,,,,
mp-553975,1.908,-1.6440481376499996,3.0632783325403405,0.0,-168.52187933,-4.21304698325,K3Na2InO4
mp-770311,,,,,,,
mp-778863,,,,,,,
mp-770270,,,,,,,
mp-8872,2.9322,-2.2608809542261907,3.1536604233568246,0.0,-77.69506762,-5.5496476871428575,RbNa2BO3
mp-768453,5.9635,-2.810244507610294,3.807430510591984,0.0,-236.36602579,-6.951941935000002,Lu2(SO4)3
mp-976313,3.4428,-2.3313914920468752,2.352781710112184,0.0,-194.87290261,-6.0897782065625,K3V(SO5)2
mp-12012,1.6323,-1.1439665667678571,4.314642000671799,0.0,-65.0004432,-4.6428888000000015,KPrGeSe4
mp-777529,1.9231,-3.1637757493118515,2.969040045781297,0.004774778518513045,-144.64645327,-5.357276047037037,Li2VF6
mp-766955,2.1135,-1.8228440594732689,3.623227459396377,0.005246486029420794,-435.72139604,-5.809618613866666,K6Na2MnH24(WO6)6
mp-560314,4.0206,-1.7498227266195308,2.7869586667221364,0.0,-352.98068779,-5.51532324671875,In2H10S3O17
mp-698666,0.5568,-2.1650328290972225,4.41817901857837,0.025841595138895283,-294.87739382,-6.143279037916668,Li2MoO3
mp-778574,,,,,,,
mp-775831,1.366,-2.299261618747816,3.930600288123304,0.08500215194444216,-69.02411286,-7.669345873333333,TiMn2O6
mp-572551,1.9396,-2.247335328706897,4.319946906182246,0.0,-96.69453962,-5.371918867777778,Cs2U(Br2O)2
mp-554119,1.712,-0.9086155595156252,2.9120908375689347,0.0,-137.58030319,-4.2993844746875,KSnAsS5
mp-626227,3.8933,-1.4918863270525928,1.7000962561734712,0.0019616751388893405,-273.14566967,-5.058253142037038,Ca(H8O5)2
mp-753532,0.2259000000000002,-3.047097385875714,4.760881293770019,0.02373597060150523,-114.22077691,-8.158626922142856,Nb2O3F2
mp-771092,0.6674,-2.5505869835818515,2.9463885909146734,1.147807731590289,-277.93531931,-6.94838298275,Li6Mn3Cr(PO4)6
mp-9468,5.2804,-3.2878013788333345,3.040547322853117,0.0,-657.42591412,-7.145933849130435,KCa9Mg(PO4)7
mp-764434,,,,,,,
mp-863377,2.2422,-2.4968498778521835,2.893521044792932,0.08657063206944482,-156.63713845,-6.526547435416667,Li2SnP2O7
mp-715517,0.9538000000000002,-2.4271353222916665,3.8339294312499033,0.05782781020833205,-370.76948919,-7.724364358125,VO2
mp-18779,2.8727,-2.002314846071428,2.66688033927774,0.0,-165.05343711,-5.8947656110714295,Na2CrO4
mp-561407,2.4681,-1.376592846875,3.321588968318786,0.0,-131.68780091,-4.1152437784375,RbGaS2
mp-770704,3.0377,-2.2711902007291678,2.943620066466393,0.31008295656249985,-193.80760823,-6.0564877571875,Li2AlFeO4
mp-542374,0.7335000000000003,-0.3001216640000002,3.3425518474433384,0.0,-91.24699608,-2.8514686275,KSn
mp-542737,2.3069,-2.505718150357142,5.127402237632709,0.029657548095240568,-179.74665191,-6.4195232825,TiZn2O4
mp-868598,,,,,,,
mp-754199,2.8453,-1.7122385269444444,4.4320096008341485,0.04151891750000036,-39.95583901,-3.329653250833333,BaSrI4
mp-675879,0.2642000000000002,-0.21449345762500016,6.4800330747039965,0.06346479099999991,-29.13410678,-2.913410678,Ag3SI
mp-782648,0.9556,-2.4437169507815306,2.547481374703698,0.12953369644446333,-503.91125343,-6.99876740875,LiMn(PO3)4
mp-743528,3.2644,-0.8298094166839125,1.6582046743759928,0.6596986108242513,-447.59633785,-4.865177585326087,CrH14N4Cl3O
mp-19393,1.2484000000000002,-2.622812195935043,5.73795372953408,0.0,-247.76272304,-7.742585095,NdMn2O5
mp-556078,2.9713000000000003,-2.208055564636826,3.124539480123912,0.0,-160.16845875,-3.8135347321428577,MgAs2(XeF8)2
mp-37449,1.6239999999999997,-2.2027490063095243,5.698778035665375,0.021041727507435937,-85.29565013,-6.092546437857143,Nd5AgS8
mp-849482,0.2015,-2.579362257815613,4.140323206968952,0.0709227042708358,-236.49632767,-6.569342435277778,Mn12O7F17
mp-504662,3.1049,-1.6046255415033333,3.9576073867175956,0.0,-173.30871186,-4.814130885,SbClO
mp-776752,1.1088,-2.457895238608139,3.4261261166318167,0.08256025528846589,-276.62679072,-6.915669768,Li4Mn2Fe3Sb(PO4)6
mp-9711,2.8812999999999995,-1.3539951082693336,4.517865888721469,0.0,-229.76919812,-7.658973270666666,Ba2Si5N8
mp-850015,,,,,,,
mp-16831,2.7095,-3.1104417904693875,2.8453517542315336,0.0,-276.82082318,-7.909166376571427,CaTi4(PO4)6
mp-777710,,,,,,,
mp-771861,,,,,,,
mp-763876,,,,,,,
mp-568005,4.3502,-2.0255438209195398,4.79782561651789,0.0,-17.47349637,-3.494699274,CsYbBr3