id,band_gap,formation_energy_per_atom,density,e_above_hull,energy,energy_per_atom,pretty_formula
mp-776093,2.6314,-1.9026670953362064,4.161430091938473,0.0,-111.21696926,-5.560848462999999,CsAsO3
mp-849565,2.314,-2.2692770650765297,2.8113881406451022,0.025966784387756903,-726.79570795,-7.416282734183673,V2O5
mp-556098,,,,,,,
mp-555507,6.4233,-4.124234901175702,4.174414518473693,0.0075458089473672265,-435.74898952,-5.733539335789473,Sr10Al2ClF25
mp-557739,,,,,,,
mp-4959,2.9780999999999995,-2.5981773742857137,5.399497191896808,0.05055558583333752,-172.90218428,-6.17507801,Ca(GaO2)2
mp-19092,2.2831,-1.9575188225,7.424587646300128,0.0,-85.13843815,-7.094869845833332,CoWO4
mp-768665,1.8463000000000005,-2.408608945787038,4.081650156948222,0.09104883444444044,-248.23971349,-6.8955475969444455,LiBiB2O5
mp-707491,2.3645,-1.5712186913947273,4.771689107079272,0.05240833550218227,-757.39102007,-6.8853729097272725,Re6H12Pb3C2S2(N2O13)2
mp-706631,4.6154,-2.555765649468334,2.330219932060398,0.0,-656.36428162,-6.837127933541668,Na2B3HO6
mp-772273,4.2489,-1.8364291764304483,2.4890827489652594,0.18331597934210908,-217.10487489,-5.713286181315789,Li2MnH4(SO5)2
mp-764316,,,,,,,
mp-1018656,1.5507000000000004,-1.0053402343100002,2.962347975489305,0.01824157999999976,-21.387103399999997,-3.564517233333333,Ca2H3Br
mp-761996,,,,,,,
mp-768368,1.2568,-1.4310641390357144,2.7920616816055066,0.0,-21.75272836,-3.1075326228571427,K4I2O
mp-769850,,,,,,,
mp-999200,0.3218000000000005,0.10147562250000064,2.1584135917695915,0.10147562250000064,-21.28766013,-5.3219150325,Si
mp-567062,,,,,,,
mp-774465,0.6345000000000001,-2.082325864183209,2.7120686911906278,0.04606972006942911,-225.86697908,-6.274082752222222,LiMn(SO4)2
mp-558332,1.8748,-1.3823478927500006,3.838731390119793,0.0,-68.37740854,-3.4188704270000003,K5Au(IO)2
mp-23956,3.4515,-0.33317045768761844,1.584692648864089,0.0,-19.10883366,-2.72983338,K2MgH4
mp-769861,,,,,,,
mp-770426,5.0178,-1.0890025656112499,3.6208186971951095,0.018429117187499955,-153.43197695,-4.7947492796875,Ho(ClO4)3
mp-779893,5.4353,-2.834277792517858,3.4953201481236453,0.009177251499999706,-591.19235424,-7.389904427999999,DyP5O14
mp-25135,,,,,,,
mp-853262,,,,,,,
mp-23963,3.2139000000000006,-0.937435040474,4.335262916991871,0.01634846874999774,-88.75166934,-4.4375834670000005,HIO3
mp-778714,,,,,,,
mp-569098,2.1756,-0.6188792378950002,4.538322019849543,0.0057026034374993975,-720.02311168,-6.428777782857144,RbNa11(WN3)4
mp-8263,2.8040000000000003,-2.27523063572619,2.4532991912198407,0.0,-78.15569291,-5.582549493571428,KNa2BO3
mp-27184,3.2677,-2.467433173231982,5.821578728302363,0.0,-269.52344597,-7.284417458648648,B10(Pb2O7)3
mp-694952,1.1469000000000005,-2.4421823822499986,4.762411527337824,0.04465373612501189,-302.15779818,-7.553944954499999,Ti5Fe11O24
mp-698576,1.2332999999999998,-2.100009029249999,4.711532529899691,0.5027226442500101,-290.62961986,-7.2657404964999985,Ti3Fe5O12
mp-646102,1.8217,-1.461779737706,3.996232641905956,0.005959750977271749,-149.90123173,-3.7475307932499997,Al3Bi5Cl12
mp-24674,5.8481,-2.463597049427519,2.338106792533962,0.0,-248.53751118,-6.540460820526317,Be3P2(H2O5)2
mp-770707,3.069500000000001,-2.284623709479168,3.0240103329052226,0.2966494478124995,-194.23748051,-6.0699212659375,Li2AlFeO4
mp-686705,0.2677000000000005,-2.2053271482500003,5.742384855593356,0.11113437712500218,-271.22080251,-6.78052006275,CaNb2Ga2(CuO4)3
mp-772434,1.7279000000000002,-2.1865947490740734,2.6164590872852678,0.013167364722222352,-207.751014,-5.7708615,Li4CrO4
mp-849675,0.0,-1.5715732891292666,3.152169870878281,0.947438219514253,-451.86627918,-6.455232559714285,Li5Mn6(BO3)6
mp-25740,,,,,,,
mp-771303,2.1114,-2.300597861410945,2.727472239282726,0.2946116710763817,-258.72907421,-7.186918728055557,LiMnB2O5
mp-754892,0.4777,-1.551952949402,3.016855730593558,0.0414471574999995,-16.20088341,-3.240176682,Rb3ClO
mp-7748,4.7338000000000005,-2.879133066875,3.485224395822036,0.06505914999999796,-25.06566204,-6.26641551,NaAlO2
mp-723002,2.9412000000000003,-0.8975287431631166,2.655344697878925,0.02486350112666713,-234.90119927,-5.106547810217392,Ag2H12S(NO)4
mp-540254,,,,,,,
mp-601817,1.9394,-0.06744002555428555,3.7040569038020026,0.15881072965428888,-170.55219519999997,-6.091149828571429,Cu4H3C2N5
mp-30094,4.709899999999998,-0.2501361324000001,1.2408514356905211,0.1390314419999914,-262.89494544,-6.572373636,H2CN2
mp-669421,2.8134,-2.5302370057142864,5.7247943947692095,0.3809396792856976,-184.89976128,-6.603562902857143,AlTlSiO4
mp-24761,4.6625999999999985,-2.572046735356413,3.250421325178242,0.0,-406.18405307,-6.7697342178333315,RbGaBP2HO9
mp-555850,2.6270999999999995,-3.3367303181050003,6.671465427040986,0.0,-38.84936295,-6.474893825,LuSF
mp-19048,4.8845,-2.724683924166667,6.023402681770163,0.0,-87.71372544,-7.30947712,BaWO4
mp-559243,3.0860000000000003,-3.4429769650207707,7.068973891419941,0.0,-110.23790176,-8.479838596923077,Nd2Ta2Cl2O7
mp-685300,1.071,-0.9723779879072298,1.98706637489922,0.000654402896341999,-430.94140379,-5.25538297304878,Ti4P8S29
mp-694942,2.2684,-2.8439266072695566,3.876742768111759,0.0,-294.89659662,-4.914943277000001,BaNa5LiCo5F18
mp-14638,6.1125,-3.108713362380666,4.023988918080002,0.0,-93.01703069,-4.6508515345,Rb2LiGaF6
mp-769261,2.395,-2.024437715280172,3.036820061083352,0.02353223701149698,-365.75467676,-6.306115116551723,Na6Sn2C4SO16
mp-625824,3.4704,-1.4633389984106169,1.842120446642136,0.03515193537040684,-270.98415096,-5.0182250177777785,Sr(H8O5)2
mp-4035,4.1222,-2.3652616187499995,4.5763829403080765,0.0,-89.19858569,-7.433215474166666,RbReO4
mp-780398,2.6467,-1.7456738683547797,3.4360505853576115,0.025944242647053528,-394.41330992,-5.800195734117647,Al2(SeO4)3
mp-772082,2.1083,-1.563261827857143,4.422467629649284,0.0250691599999997,-50.99669592,-3.6426211371428567,CaLaI5
mp-762565,,,,,,,
mp-707874,1.4489999999999998,-0.4929283959829629,4.248210565346708,0.0,-188.23001151,-3.485740953888889,Ba7Cu3H17
mp-690516,0.6911,-1.8470403077314808,4.732761756485286,0.3555989583333359,-51.69928821,-5.744365356666666,Sr2Co2O5
mp-769426,,,,,,,
mp-764819,,,,,,,
mp-765936,,,,,,,
mp-863358,4.674899999999999,-3.3890273035948266,3.1860704597639407,0.0006583767241403747,-425.53967570000003,-7.336890960344827,KAl11O17
mp-776985,,,,,,,
mp-562321,,,,,,,
mp-768536,1.8264,-2.1589299114347287,4.624005378640224,0.024126683214285904,-141.88688003,-5.0673885725,Cs3LaO3
mp-866658,1.6903,-0.9044307213912902,2.1291537894829045,0.07159895216085932,-147.23411171,-4.749487474516129,H16RhN5(Cl2O)3
mp-760513,1.6458000000000004,-3.902449469722223,7.924975573634466,0.0,-81.75946226,-9.084384695555556,La2UO6
mp-23850,1.9498,-0.5294707430300001,1.3082141986380198,0.0,-71.44820595,-4.465512871875,NaH2N
mp-560589,2.1919,-1.832812893690192,2.800527099171723,0.06146347541480246,-280.29912654,-5.390367818076923,NbSe2SN2ClF6
mp-18774,2.4732000000000003,-2.380123334626622,3.1239024901831067,0.179271384545455,-295.10442692,-6.706918793636363,NaFeP2O7
mp-768074,3.2939,-2.6658020246296297,5.366682723471424,0.04312993916666308,-287.36015055,-7.982226404166667,LiTaWO6
mp-776731,0.0,-2.226051885370879,2.8548963547278814,0.14626831146154018,-335.4656172,-6.451261869230769,Na3Li3Fe2P2(CO7)2
mp-626293,3.1307,-1.4752339800772831,1.9078008123909929,0.023256953703740813,-271.62647997,-5.0301199994444445,Sr(H8O5)2
mp-25156,,,,,,,
mp-763230,,,,,,,
mp-777664,3.0898000000000003,-2.595636356870476,1.9992895257702283,0.4091763221428586,-66.81159556,-4.772256825714286,Li2FeF4
mp-1019611,5.6243,-2.8827782016043155,2.747701848286894,0.0,-812.98194461,-7.669640986886793,Cs2Na2Sr(B3O5)6
mp-781761,,,,,,,
mp-769050,0.2302999999999997,-1.479291214618056,3.2928781136724443,0.061860413020827565,-132.85547054,-5.535644605833332,Li2NbS3
mp-851023,,,,,,,
mp-545359,1.5182,-1.3533865442500002,2.843575516561799,0.0,-24.44570183,-4.074283638333333,KNa2CuO2
mp-674506,4.4197000000000015,-2.9536625558092005,7.409078543608709,0.0368479906000001,-128.74718623,-5.1498874492,NdPb7F17
mp-698638,,,,,,,
mp-646397,,,,,,,
mp-540619,1.2332,-0.8330739205714289,3.4987607059846018,0.0,-90.33964822,-3.2264160078571433,K3SnTe3
mp-5977,3.3252,-3.852087761704546,6.151876609364258,0.0,-197.44862268,-8.974937394545455,Nd2Zr2O7
mp-554885,4.3725000000000005,-2.7571193573077264,4.052527051227502,0.0,-168.97476025,-7.6806709204545465,Ba3Si6N4O9
mp-675680,1.3585999999999996,-2.251401426851852,5.11011455790717,0.14539122916667147,-222.73634431,-6.187120675277778,Sr(SbO3)2
mp-28947,2.9784,-1.581932447975,3.130125701076468,0.0,-112.88610973,-3.5276909290625,NaSn2Cl5
mp-850750,1.0904999999999998,-2.3966637265276955,2.959941203379339,0.08067790366665584,-345.37898525,-6.907579705000002,LiV2P4(HO8)2
mp-25127,,,,,,,
mp-558489,4.130800000000002,-3.925301722463768,8.422653658190523,0.01832899242753605,-1317.67677303,-9.54838241326087,Ca6Hf19O44
mp-691123,,,,,,,
mp-19299,2.3089,-2.632096124416665,4.046621554470586,0.0,-80.43383028,-8.043383028,CrBO3
mp-29251,2.5167,-1.348878437828947,5.441550100595928,0.008729214671046925,-188.92933827,-4.971824691315789,Te6Br2O11
mp-720825,4.9949,-1.944498099633463,1.897417722418009,0.03199308337120765,-373.81357171,-5.663841995606061,NaPH4O5
mp-38099,1.5162000000000002,-1.7315516425385715,3.164875120666517,0.04631360476190416,-45.59273042,-3.256623601428572,Rb4Cl2O
mp-758855,3.3925,-2.414944599791666,3.448596156684728,0.015031405833332734,-296.59550484,-6.1790730175,LiZnBO3
mp-775256,0.34939999999999993,-2.635531702746665,2.8686119134980737,0.06823793363628106,-315.46593118,-7.169680254090909,Li4MnV3(P2O7)4
mp-645218,,,,,,,
mp-707940,4.4925,-2.0848126363951724,3.2867961571964828,0.0,-293.06981293,-5.052927809137931,ZrCd2H12(O3F4)2
mp-684508,2.0472,-2.393353467215608,3.5066673007951366,0.03262819977778175,-481.74051057,-6.6908404245833335,LiSb2(PO4)3
mp-7505,1.0827,-0.5262375486285713,3.0000907069516787,0.0,-41.7100886,-4.17100886,K2P2Pd
mp-277,0.9705999999999992,-1.693426331360001,6.143260109997293,0.0,-277.22789984,-9.900996422857146,Zr3N4
mp-626512,,,,,,,
mp-775823,1.6463,-2.3458368374519987,5.586004506566146,0.00488118400000026,-391.80156233,-9.795039058250001,Zr2N2O
mp-776016,1.3316,-1.2325313270000002,2.2481824521656204,0.02042421208333289,-81.31245875,-3.3880191145833334,K2O
mp-34337,4.9341,-0.8653341933533328,1.5240790507114532,0.0,-27.35727497,-4.559545828333333,H4NCl
mp-1595,2.1865,-3.0375925594642856,4.287478401628029,0.007538098265332137,-62.69408534,-8.956297905714285,Nb2O5
mp-684815,2.1914,-3.474507103189656,6.003319065425912,0.04205476132183783,-238.61835056,-8.228218984827588,Ba4La2Ti3Nb2O18
mp-616218,1.5384000000000002,-0.49269073,5.277199051457392,0.007929920454545325,-52.95318024,-2.4069627381818184,Cd(In2I3)2
mp-540522,,,,,,,
mp-705054,,,,,,,
mp-540436,,,,,,,
mp-762067,1.1021000000000003,-2.6621917407738103,4.15911256259139,0.045837977487254385,-408.50386771,-7.294711923392858,Li4Ti3V3(SbO8)2
mp-768954,4.7106,-2.8555124788653337,3.4914462854152264,0.009564037750000587,-190.54439177,-4.76360979425,Ba2YCl7
mp-4578,2.327,-1.7786066201190482,3.4447161245184397,0.0,-68.67735989,-4.905525706428572,Sr2GeS4
mp-560450,3.5649,-2.274899981739667,3.1594199503067064,0.0667898247259453,-277.73204969,-4.628867494833333,Sb2SNF11
mp-9195,1.4265000000000003,-2.128021567133437,5.904545602971853,0.0,-38.89345076,-4.861681345,BaCuSeF
mp-18388,0.8757999999999999,-0.32905334588235285,5.1366564923479725,0.0,-116.44709124,-3.4249144482352945,Ga7Te10
mp-567290,1.1194999999999995,-1.5127813211899994,5.760193070154044,0.0,-31.82808387,-7.9570209675,LaN
mp-1007866,,,,,,,
mp-18929,2.8551,-2.6987754608333328,3.705715824643162,0.0,-199.44796539,-7.386961681111112,BaV2O6
mp-11660,1.0251,-1.8142236206457136,12.974888660008386,0.0691840903571439,-148.76201681,-10.625858343571428,Hf3N4
mp-24712,5.2946,-1.6774707012719483,1.8478549184807085,0.002537802727303529,-248.69666244,-5.652196873636364,PH5NO3F
mp-768025,,,,,,,
mp-780075,1.9855,-2.5464933299519985,10.405525223436758,0.0,-422.37956827,-10.55948920675,Hf2N2O
mp-559521,1.5974000000000004,-0.92179937072,5.989809480635631,0.0,-33.0447219,-4.1305902375,InBi2S4Cl
mp-29662,0.242,-0.4512319111718748,7.7055082185180925,0.0,-15.044819899999998,-3.761204975,TlBiSe2
mp-17114,2.6688,-2.9876325685227267,6.887363515963926,0.0,-160.20898583,-7.282226628636362,Nd2Sn2O7
mp-771228,,,,,,,
mp-761648,,,,,,,
mp-690733,6.101800000000001,-1.6818378179092852,1.957348877933197,0.0004638121428541809,-77.41597958,-5.529712827142856,H2SO4
mp-764465,1.6083999999999998,-2.0363331903030297,3.224303711518857,0.3763862232500248,-298.45582449,-6.783086920227272,LiFe2(BO3)2
mp-697305,2.3028,-3.013814077813954,1.5293001286355503,0.11885779287791287,-587.2157472,-6.828090083720929,K2Na5Al7Si5O24
mp-19704,,,,,,,
mp-780039,,,,,,,
mp-557233,4.2763,-3.3018596924600003,5.804587011482005,0.001099704166666271,-63.20117488,-5.266764573333334,AlTlF4
mp-32616,1.8097000000000003,-1.059160785875001,3.4780101844864406,0.0012933809999990944,-43.54190674,-4.354190674,Ga2S3
mp-14260,3.0283,-2.3151819359141155,3.476298081304475,0.0,-727.64306854,-6.496813111964285,ZnAg(PO3)3
mp-29458,0.9479,-1.7059107279885712,3.068356919444052,0.005961323968254994,-119.60056296,-4.271448677142858,Rb3Mo2Cl9
mp-27310,3.5473,-2.8002609557000007,3.3503049055211025,0.0,-158.07142909,-4.649159679117648,Na4Sn3F10
mp-565711,5.3101,-2.5260321464113606,2.0782736562981814,0.005259279551019347,-495.14133704,-5.894539726666666,P2O2F3
mp-767983,,,,,,,
mp-560068,3.7505,-1.4448803063912496,2.492486834307135,0.008614540156250959,-323.44676423,-5.05385569109375,Na3NO4
mp-850771,,,,,,,
mp-695396,1.6565,-2.9998032043333325,4.463789381218988,0.033109284500000065,-309.53833588,-7.7384583970000005,Na3SrTiNb3O12
mp-773242,0.8081999999999998,-2.274398841,4.131810521330107,0.1393708567777754,-101.24346123,-6.749564082000001,Li3V3CoO8
mp-680400,1.6765,-1.3064363706796875,3.0783570638865427,0.0012275076562495713,-344.61048747,-5.38453886671875,K3Ta2S11
mp-780097,0.26539999999999986,-1.80182746914,4.288957516244853,0.6485118044444533,-95.19773963,-5.288763312777778,Fe3(OF2)2
mp-752395,1.9318,-2.15946345375,4.276527290601249,0.07997200107142888,-137.26251301,-4.9022326074999985,Ba2Na2O3
mp-29289,0.9712999999999998,-1.3078253644791669,7.024638679235374,0.002917189583333091,-129.30683215,-5.387784672916666,BaPt2S3
mp-775347,,,,,,,
mp-26725,2.5567,-2.4511753350340144,3.9016717260462697,0.031030019642849464,-272.73235749,-6.493627559285715,LiSnPO4
mp-756654,2.7582000000000004,-2.132649255813333,5.328280408143637,0.08338125895833493,-64.77265182,-5.3977209849999985,SbOF
mp-622602,2.6358,-1.9688833931944452,3.734670063186051,0.0,-451.83447645,-6.275478839583332,NaMoAsO6
mp-28982,1.4050999999999998,-1.3194219543955552,4.957281769946344,0.005441868333333488,-63.99913898,-3.5555077211111112,Pd(PbCl3)2
mp-850413,,,,,,,
mp-776667,1.63,-1.4756662472058826,3.0674369941853303,0.19357771245588665,-441.70819327,-6.495708724558822,Cr3(FeO6)2
mp-770162,,,,,,,
mp-638424,4.0328,-1.9159695494230773,3.8631020302606767,0.0,-313.29028906,-6.024813251153847,Sb2S2O9
mp-770504,0.8510999999999997,-2.2503552957724327,3.5913941920014696,0.013768530416665923,-452.20506514,-6.280625904722222,Li24MnCr11O36
mp-777914,,,,,,,
mp-13972,2.166,-3.3332202943020848,7.219437266398653,0.0,-38.08870884,-7.617741767999999,Sm2SeO2
mp-865197,,,,,,,
mp-676851,3.0607,-1.501616643826,1.8544201148150443,0.011050273499996877,-29.30795076,-5.861590152000001,KNO3
mp-773565,,,,,,,
mp-15520,5.0939999999999985,-2.9375730792156856,4.647194071303835,0.011411983176460085,-526.74470779,-7.746245702794117,TbZn(BO2)5
mp-780342,3.1517000000000004,-3.7869386042045465,6.405966747406597,0.07358353329545864,-466.49451467,-10.602148060681818,Gd2Zr2O7
mp-756888,4.3104,-3.5680919486607143,4.04166773524482,0.028936189999997808,-228.61292535,-8.164747333928572,La2(SiO3)3
mp-866640,3.4054,-0.5025777957466665,5.152474423849198,0.0,-145.22347728,-4.03398548,LiMgH6Ir
mp-761612,,,,,,,
mp-555251,5.6355,-3.267264894999999,1.8483254080347902,0.010732774166665848,-94.86606511,-7.905505425833333,SiO2
mp-558625,4.1079,-3.2747287586507934,3.7663549056309873,0.014157335375008628,-188.65164492,-7.860485205,SrZr(PO4)2
mp-31005,3.5353,-2.3643065590109895,3.8261008155445264,0.018624062307691425,-158.61252511,-6.100481735000002,Zn3(PO4)2
mp-755393,2.0515,-1.5693869673809524,4.685984616179251,0.047102230357142894,-50.46248491,-3.6044632078571435,SrLaI5
mp-555131,4.1445,-1.9079182913577588,3.5985689399506047,0.0,-209.96141036,-6.56129407375,CsCO2
mp-32437,,,,,,,
mp-767539,1.0930999999999995,-1.1396251323611122,2.2928817498075342,0.08731899685185153,-131.14057052,-3.6427936255555564,Li6SbS2
mp-12448,0.3960999999999997,-2.8522744940833333,8.073062792598911,0.0,-153.13672002,-7.656836001,LiSm2OsO6
mp-770632,1.1252,-2.1895576175,2.584937981138544,0.0,-95.73187769,-5.983242355625,Li3CrO4
mp-27786,1.1627,-1.09358594202375,2.2333988911068,0.0,-94.48690695,-2.9527158421875,SbAs2Cl13
mp-540125,,,,,,,
mp-756755,2.1375,-2.5903991081578948,4.705814110704728,0.020116010921048755,-139.33955329,-7.3336606994736835,Li3Nb3TeO12
mp-5788,0.4310000000000001,-3.3024299502499996,7.0802464004741505,0.0,-167.41111669,-8.370555834500001,NaUO3
mp-30294,2.4704,-1.7741790015476195,3.597651501025413,0.0,-67.36493993,-4.8117814235714285,Sr2SnS4
mp-642250,,,,,,,
mp-6566,2.7868000000000004,-1.9430654590476184,3.6957530355209465,0.003335886785706954,-226.88587055,-5.402044536904762,NaZnAsO4
mp-669364,2.4394,-1.1781128036637931,4.986352934093231,0.0,-153.0027273,-5.464383117857144,Cs3Re3(SI)4
mp-23751,2.6161000000000003,-0.3120317214248734,3.1549756687341977,0.0040928650000000575,-41.31500064,-2.7543333760000004,CsMgH3
mp-21459,0.5082,-0.7552420980208332,4.6846107267140775,0.001989284375000011,-62.20464365,-3.887790228125,InAgS2
mp-770069,,,,,,,
mp-555268,0.2762000000000002,-2.496727880951389,6.296361734545562,0.0,-160.34997224,-6.681248843333332,K2Sm2IrO7
mp-19488,1.7343000000000002,-2.5828819915736507,3.3136125663612366,0.0,-250.28371406,-5.688266228636364,Rb2MnSO4F3
mp-758453,4.6627,-1.7540903440088564,2.191553712755456,0.03460938776667977,-359.41836503,-5.9903060838333335,Na2P2H4N2O5
mp-652774,,,,,,,
mp-23553,2.3809,-1.8504555479687497,7.68823935116862,0.031090346770835,-193.68926447,-6.0527895146875,GeBi2O5
mp-27798,2.8856,-0.16190598772870382,0.8821485599338182,0.012353850434045022,-709.97439621,-4.930377751458334,B4H5
mp-716723,0.5647000000000002,-2.3338416588942303,4.4132968784762125,0.16366717076926562,-398.91880326,-7.6715154473076925,V9O17
mp-779763,3.0138,-3.79600958534091,6.555812439685669,0.0,-386.13840639999995,-8.775872872727273,Tb2Ti2O7
mp-766115,,,,,,,
mp-762552,,,,,,,
mp-849583,2.2919,-2.9773526574403704,5.260777923670021,0.05967496222222124,-330.58263274,-9.182850909444443,YNb2NO5
mp-695843,0.8734,-0.9330742922994116,3.3775320019550876,0.00012351063725501987,-260.91189932,-3.8369396958823527,SbH7(Br2O)3
mp-570593,1.1454000000000002,-0.2955591527690971,4.734807265298553,0.0,-180.57318026,-3.761941255416666,RbAg2(AsSe2)3
mp-16742,1.5094,-2.0877201748808334,6.29824396629014,0.0,-35.3324633,-4.4165579125,BaAgTeF
mp-570645,3.6461,-1.4163487882693335,3.116668814683411,0.004915301999999677,-927.84710456,-7.732059204666668,Ca2Si5N8
mp-780282,2.7302,-2.3926379990476194,4.250655868475018,0.09490872547619844,-287.97667159,-6.856587418809523,Cd(BO2)2
mp-7438,0.4468000000000001,-0.400293481,3.855436291640781,0.0,-15.39947916,-2.56657986,KZnSb
mp-541339,4.6187000000000005,-1.6487390249222913,2.147245306488362,0.01707164593750044,-159.41822785,-4.9818196203125,SrH9ClO5
mp-756344,4.323,-2.7012393835185176,3.032239930116352,0.03699603611111435,-114.95441674,-6.386356485555557,Li4ZrO4
mp-743964,,,,,,,
mp-763543,,,,,,,
mp-722780,5.6607,-2.476709748815715,3.612519938344391,0.013759361390428104,-535.96475538,-6.699559442250002,Pr2P3(HO2)5
mp-772490,,,,,,,
mp-27278,5.7942,-1.7370203882557143,1.7485627074268593,0.01658225133729907,-407.90462301,-5.6653419862500005,P(HO)4
mp-559065,3.1334,-1.0289920058333326,4.414977979739102,0.0,-104.39495604,-4.349789835,NaI3O8