id,band_gap,formation_energy_per_atom,density,e_above_hull,energy,energy_per_atom,pretty_formula
mp-28202,3.6478,-1.440096225485,2.5188824650910746,0.0,-159.14840283,-4.9733875884375,K3NO4
mp-23674,4.2532,-1.4166567689975005,2.126009364653832,0.020540986249995896,-142.93072512,-4.46658516,NaH4BrO2
mp-779156,1.945,-1.327929022057291,4.5120369570026995,0.0012985224999990663,-117.40940106,-4.8920583775,CdSeO4
mp-556503,5.2446,-1.558118638597083,1.4379097051302858,0.06905460656249929,-184.22739269,-5.7571060215625,LiH3CO3
mp-996962,0.5349,-1.114454881875,5.06243351136354,0.0,-35.38120475,-4.42265059375,LiAgO2
mp-27692,5.1593,-3.0316537965277788,3.400032233111236,0.0,-757.88829789,-7.8946697696875,BaB4O7
mp-774186,2.2968,-2.0499059840644183,2.3206896027217327,0.09851236551638463,-445.77532394,-6.1913239436111125,LiVP2H5O9
mp-763470,,,,,,,
mp-4423,2.7473,-3.743459500795456,5.592531830520519,0.050321476250006825,-193.11966536,-8.778166607272727,La2Ti2O7
mp-5004,1.5382,-0.4185301534611741,3.7759677782152785,0.0,-90.11687865,-4.096221756818182,Na2B2Se7
mp-764490,,,,,,,
mp-777203,,,,,,,
mp-31275,1.1543,-0.5146777945408166,4.345351550238149,0.0,-133.84584279,-4.780208671071429,Ba(TeP2)2
mp-13946,6.6345,-3.680464498015555,3.725273347268702,0.0,-52.15625006,-5.795138895555557,Rb2ZrF6
mp-8877,3.3444000000000003,-3.3903709580344192,2.994663525233644,0.0,-161.63088752,-7.027429892173912,Sr4Al6SO12
mp-720861,4.9359,-1.3365478982659993,1.2752917203160448,0.014793037374996487,-382.30151341,-4.778768917625,H13ClO6
mp-32062,,,,,,,
mp-1019744,4.3747,-3.2023716828529407,2.342214948517071,0.01800313727941205,-245.75818963,-7.2281820479411785,K2Al2Si3O10
mp-25091,,,,,,,
mp-773318,,,,,,,
mp-554006,4.479799999999999,-3.4409576489285705,3.87615634350086,0.01867777595237996,-602.18040073,-7.168814294404762,SrCaSiO4
mp-17322,0.3987999999999996,-1.1077435103125002,4.228681481364692,0.006646129583332439,-109.90229137,-4.579262140416667,SrCu2SnS4
mp-567734,2.3859,-0.8695842472845831,2.8958955662497847,0.0,-188.62064318,-3.9295967329166666,AlAs3(SeCl)4
mp-769631,0.5467,-1.9235101789413458,4.2441583475252616,0.011766570892855377,-90.77070272,-6.483621622857143,Li2Mn3NiO8
mp-33932,2.6175,-2.5145599754740005,3.996227599568687,0.033643070285673815,-154.60335194,-7.730167597,NbHO3
mp-764695,,,,,,,
mp-762904,,,,,,,
mp-17235,5.0924000000000005,-3.64743613503788,5.0597683695736455,0.0,-360.49440812,-8.19305473,Sm2Si2O7
mp-763622,,,,,,,
mp-560334,4.5993,-3.1608746344642853,2.448414627304373,0.0,-396.71979045,-7.0842819723214285,NaAlSiO4
mp-554141,3.3125000000000004,-3.388172692175925,2.9591877637802515,0.06122319379629192,-189.4309813,-7.0159622703703715,Ca3SiO5
mp-567176,,,,,,,
mp-557805,0.7637999999999998,-0.8040992991810348,5.649768941316596,0.007136683999998006,-51.30305124,-5.1303051239999995,MnBiS2Br
mp-763011,,,,,,,
mp-780829,,,,,,,
mp-12193,2.9231000000000003,-3.740785917613637,5.891399403118572,0.0,-384.77878189999996,-8.744972315909093,Nd2Ti2O7
mp-770799,3.9130000000000003,-2.540560465416668,2.8990261085465354,0.029449008636359686,-137.64082354,-6.256401070000001,Li5NbO5
mp-8810,3.9634,-2.7375582549084245,3.6432277990710937,0.0,-338.354221,-6.506811942307693,SrZn2(PO4)2
mp-556515,3.9252,-2.25636059354875,2.6930702897905845,0.04396550739583649,-208.95376689,-4.353203476875,AsSOF9
mp-735022,5.2009,-2.848007803944013,3.4548552723893984,0.0006310201785604264,-756.17952446,-6.751602896964287,SrPHO4
mp-743607,1.6180999999999996,-2.9543229794393246,3.37778793694816,0.03842177314515105,-477.56568009,-7.702672259516129,Li2Ti4Co(PO5)4
mp-690541,2.5222,-1.5203041919791669,5.736366068706256,0.106059504479167,-120.22046906,-5.009186210833334,Tl2SO3
mp-13863,3.5407,-2.706277459249999,4.801994904815719,0.0,-131.21946465,-6.5609732324999985,BaGeO3
mp-30013,1.2591,-1.292293517206,3.367821490094701,0.005959743833339193,-78.61919565,-2.620639855,SbKr3F11
mp-762779,,,,,,,
mp-643384,3.9362,-2.0773489880925,4.487398389098381,0.0,-76.95111191,-4.809444494375,BaHIO
mp-15225,4.8267000000000015,-3.6190705201136377,5.2456025776664585,0.0,-719.30001386,-8.173863793863637,Nd2Si2O7
mp-763620,,,,,,,
mp-570838,0.4599000000000001,-0.27756251454545444,6.390187300274683,0.0,-41.1739178,-1.871541718181818,CdHg4(AsI2)2
mp-703253,0.0,-1.3378882928124995,3.6991324357071376,0.20894375143940813,-116.29016714,-5.2859166881818185,RbFeSe2O7
mp-774146,0.8939,-1.3139353965000011,4.7402230768495075,0.06833406933335784,-53.88397494,-5.3883974939999995,W(BrO)2
mp-765919,,,,,,,
mp-765406,0.7100999999999997,-2.809296919285714,6.9570714778922715,0.19476204892857485,-49.79984853,-7.114264075714287,Nd2NiO4
mp-42227,4.153899999999998,-3.1869452098062068,4.950517559890663,0.016830189625000713,-55.91802653,-5.591802652999999,Cs2ZrTlOF5
mp-13356,3.1297,-2.7399473044166656,5.9050970396326665,0.0,-61.5441897,-6.15441897,Ba2SrTeO6
mp-763408,,,,,,,
mp-690495,1.0029000000000003,-1.0246616021428565,5.2624647462993375,0.8540357067857149,-80.98436636,-5.784597597142858,Fe5SnO8
mp-23053,2.6516,-1.061907761086667,6.443454585230264,0.046352268750066816,-38.704691499999996,-3.2253909583333336,PbICl
mp-557381,0.5333999999999999,-3.0086057011309535,6.046293888121977,0.013487217482994751,-328.85045265,-7.829772682142857,Rb3U3Ge2O13
mp-510545,5.2395,-2.1054772031173683,2.1654675943375667,0.0,-433.30343474,-5.701360983421052,K2BeH4(SO5)2
mp-541156,3.1985,-2.0337214348511905,5.721991178220272,0.001934400833331296,-266.59717613,-6.347551812619049,Ge4PbO9
mp-677716,1.8815,-3.035804372,1.9633650824480984,0.08323898432812538,-564.23083749,-7.052885468624999,RbAl3Cd(SiO4)3
mp-19318,1.8721,-1.3097690266666666,5.885336414629071,0.0010200464285716748,-78.26147663,-5.5901054735714295,Ag2MoO4
mp-781051,0.29190000000000005,-1.9997174900416668,4.3298535222705175,0.07409182049999963,-235.28759299,-5.88218982475,Li5V2Ni3O10
mp-767102,,,,,,,
mp-14734,6.1156,-2.349572502541838,3.1283738980789604,0.0,-130.90769231,-5.4544871795833325,CsCOF3
mp-696983,4.9365000000000006,-0.2775375508299997,1.9728235486166699,0.0,-75.05064327,-3.12711013625,KGaH4
mp-8717,1.1227,-0.5164684248685347,3.710227190181012,0.2547408630000003,-41.39387939,-4.1393879390000015,Rb2MnSe2
mp-565386,,,,,,,
mp-757788,0.8598999999999997,-2.5445745039418,3.0042297830191327,0.1327231096349175,-260.82739607,-7.24520544638889,LiNb(PO3)4
mp-766063,,,,,,,
mp-694868,2.4234,-2.663679923721804,3.7138163071846817,0.1525594118045106,-536.1713103,-7.054885661842103,Rb2ZrFe(PO4)3
mp-761719,,,,,,,
mp-541433,2.7121000000000004,-1.5677123896428569,7.651495952157473,0.007025351071428432,-293.08547314,-5.2336691632142855,Cd(BiO2)2
mp-31352,3.9208,-2.361999060591517,5.470557705934211,0.0,-181.8031202,-6.492968578571428,Er2(SeO3)3
mp-757197,4.0231,-3.9895542095,5.6959964007934065,0.0003524210624998858,-357.49818287,-8.93745457175,DyY3O6
mp-566709,,,,,,,
mp-769903,,,,,,,
mp-543011,2.0396,-1.1306093190624995,3.9847011940767167,0.01289359785714339,-48.95568377,-3.496834555,ZnS
mp-764224,2.4450000000000003,-2.552573356996667,2.5346406287950827,0.06454873500002734,-141.53258517,-6.433299325909092,Li2V2O5F2
mp-22551,1.7728999999999997,-2.778663755309524,6.0237752690414235,0.0,-227.3595437,-7.578651456666666,UP2(PbO5)2
mp-7535,4.7971,-2.499027358833333,2.1658347746889253,0.02511903474999944,-110.52625112,-5.526312556000001,Li5AlO4
mp-1019534,3.6891,-3.4560761109375004,3.50632691234384,0.0008444238249998293,-352.37538305,-7.341153813541666,BaAl4O7
mp-868321,,,,,,,
mp-770907,2.4647,-2.8727181985576915,8.081111601233912,0.024036124062499557,-241.84564644,-9.301755632307692,Gd2W2O9
mp-850010,,,,,,,
mp-19378,1.6688000000000005,-1.698485026458333,6.280759053586071,0.0,-51.51569514,-6.4394618925,CrAgO2
mp-769390,4.2126,-3.4660774853846137,5.38810994914395,0.030599088956062562,-217.47654765,-8.364482601923076,Ca3Ta2O8
mp-18765,2.6239,-1.2291098895000006,3.735595989320834,0.05603359400000052,-41.75429639,-4.175429639,Na2NiO2
mp-19315,2.1988000000000003,-2.77026246014485,6.261624724123314,0.0,-145.28712542,-7.2643562710000005,Sr2MnWO6
mp-778509,2.6114000000000006,-3.0092574425473333,3.239399774336666,0.05262951050000186,-114.46886655,-5.7234433275,LiVF3
mp-754768,1.3984,-2.459981857159092,9.924449618676027,0.0,-156.38001266,-7.108182393636364,Tb2Pt2O7
mp-777488,3.9819,-2.824400725214,3.0412182402354784,0.20011612875000304,-96.46074731,-4.8230373655,Li3FeF6
mp-777702,,,,,,,
mp-761635,,,,,,,
mp-31571,,,,,,,
mp-754462,1.0068,-2.1556191546822223,4.3923659859969835,0.08699783631944769,-76.67894928,-4.2599416266666665,SbTe2F6
mp-777624,1.5510000000000002,-2.2446778932978737,5.178547241390922,0.08790577969604385,-324.00975359,-6.893824544468084,Li9V3(WO4)7
mp-759680,3.6451,-2.745083184916666,5.077513554678205,0.0376189517499963,-139.13389041,-6.956694520499999,LiSi2BiO6
mp-557802,4.6976,-3.110628437705881,2.461546309615987,0.0,-491.96444603,-7.2347712651470575,K2Be(Si2O5)2
mp-775820,0.9737,-2.1422537709519984,4.334977366346588,0.055944103262000056,-373.21587503,-9.33039687575,Ti2N2O
mp-775682,,,,,,,
mp-559655,5.7734000000000005,-2.069064437916191,2.01460550117548,0.009652840416672248,-293.79739282,-6.120779017083334,PNF2
mp-677164,2.2101,-1.5512021913781822,5.881409541501776,0.0,-104.06915795,-4.730416270454546,CuAs2Pb6Cl7O6
mp-771753,,,,,,,
mp-763002,1.2379000000000002,-1.812046504141667,4.1879576117012585,0.5982496499999961,-129.05898657,-5.37745777375,Fe4O3F5
mp-766238,1.6014999999999997,-2.345959912201998,5.588278845533371,0.004758109250001753,-391.80648532,-9.795162133,Zr2N2O
mp-23837,4.2178,-1.7984988610276924,3.403843442111913,0.050895602499999804,-91.02214066,-7.001703127692307,NdH3(CO2)3
mp-705412,,,,,,,
mp-1020013,5.5360000000000005,-2.226440509166666,2.2890621587153253,0.0,-259.89731729,-5.906757211136362,Li2S2O7
mp-778086,6.4213000000000005,-4.255181035055687,4.475674929841764,0.08023333794118237,-432.29496402,-6.3572788826470585,Ba3Y2F12
mp-639682,5.6453,-3.2488990218333336,1.5596385654874751,0.029098647333331232,-118.30709329,-7.887139552666666,SiO2
mp-649470,3.4786,-1.5639256417480492,2.484179534715809,0.0,-1052.77460767,-6.419357363841463,K3Nd2(NO3)9
mp-768422,4.8209,-3.074161159238333,7.501265886589722,0.010490810781250914,-114.01108253,-7.125692658125,TmHO2
mp-8963,2.1558,-2.4619500300888677,5.438489489562701,0.0,-25.01028451,-3.5728977871428573,Cs2HgF4
mp-759759,4.191599999999998,-2.215380077801039,3.6825948205086183,0.008004184772722134,-535.47343388,-6.084925385,NaGa3P2(HO3)4
mp-776515,,,,,,,
mp-764589,1.7517000000000005,-1.973676437121212,3.2222361423146664,0.43904297643184265,-295.69892735,-6.720430167045455,LiFe2(BO3)2
mp-558099,1.6746000000000003,-0.9875250961249996,5.4192262988494715,0.011699786999997741,-80.38567493,-4.019283746499998,Nb2Tl5S4Br9
mp-28069,1.8384,-2.25798907354,2.5862086675254234,0.0,-30.22437271,-4.31776753,Ca3AsCl3
mp-765978,,,,,,,
mp-755511,1.6861000000000002,-2.3994536264351853,6.973381683832549,0.09878936763888913,-112.72563467,-6.262535259444443,Y2Hg2O5
mp-18084,3.0506,-3.260050011805556,7.693085798179243,0.012876068749999805,-252.06376434,-7.001771231666668,BaTb2ZnO5
mp-12904,0.9108,-0.907306358333333,7.370991349383828,0.0,-34.66153044,-4.332691305,HoAgTe2
mp-853260,,,,,,,
mp-568293,1.3007999999999995,-0.9140155209519996,2.775764181169051,0.03226617000000065,-105.89364074,-5.294682036999999,Ca3N2
mp-780635,,,,,,,
mp-740731,4.6404,-1.6089631846631631,2.3181959074573086,0.0673283314062898,-344.05505994,-5.3758603115625,Al2H12(SeO5)3
mp-565704,,,,,,,
mp-770950,1.7100999999999988,-3.355560130698702,6.526237265688722,0.0685506051577427,-440.30789269,-7.862640940892858,LiLa4MnO8
mp-764697,,,,,,,
mp-643898,5.701300000000002,-2.617660506094406,2.418835392033232,0.0,-160.87418427,-6.70309101125,CaP2H2O7
mp-767857,,,,,,,
mp-565249,,,,,,,
mp-16804,5.1801,-3.1144437683673463,2.7644400113167804,0.003071174484129635,-288.63263822,-6.872205671904762,LiCaPO4
mp-24981,,,,,,,
mp-541626,2.3239,-2.6355336221547625,4.0694503880390585,0.02315771407407041,-306.81998476,-7.305237732380951,K3Nb3Ge2O13
mp-774364,2.5125999999999995,-1.8000864482483,2.9305921155138828,3.7622467260714267,-356.36418558,-6.363646171071429,LiCrPO4
mp-773454,1.4066,-1.854926293083333,2.7681725393023444,0.09961681000001477,-201.24342747,-5.03108568675,Li5CoO4
mp-567486,4.1542,-1.0849159250391376,4.222950575164461,0.0,-623.96219673,-7.4281213896428575,BaSr2(PN2)6
mp-504802,4.3729000000000005,-1.5628816321572216,1.7077069034076158,0.022260314750905508,-492.55945591,-5.130827665729167,MgH12S2O9
mp-626062,1.9999,-3.139802937316,6.608698923002155,0.03685756233333848,-129.90740209999998,-8.660493473333334,U3(HO5)2
mp-27687,1.6559999999999997,-0.15897027114583384,2.1575394919499686,0.0,-328.58948842,-5.1342107565625,LiP7
mp-756686,2.6071,-2.7494189037500005,5.268750861847662,0.10753008650000327,-133.0310267,-6.6515513350000015,AlGaO3
mp-772049,3.7604,-3.1371824266203694,2.528230647663292,0.030481537962959493,-276.28368228,-7.6745467299999985,Li2Ti2O5
mp-762377,,,,,,,
mp-554856,4.4186,-2.8941017681944436,2.6525641455518474,0.020896565833333547,-242.98588231,-6.749607841944443,Na2Si2O5
mp-771128,,,,,,,
mp-29337,1.3683999999999998,-0.705951589672619,6.199362097103005,0.0,-58.24996026,-4.160711447142857,Tl3BS3
mp-28242,1.8016,-1.099326917833182,6.537998451725312,0.011131625454545269,-69.50181478,-3.1591733990909088,Tl6SCl4
mp-989548,3.6388,-2.737123379714,4.676715889376059,0.0,-41.52947867,-4.152947867,Rb2NaTlF6
mp-565353,,,,,,,
mp-20742,0.3782999999999999,-0.923073595120536,5.189887092986892,0.0,-123.23372698,-6.161686349,EuPSe3
mp-37381,5.4437,-4.161347560257778,7.129060260669902,0.055045295000000216,-22.86794076,-7.62264692,SmOF
mp-745166,3.5417,-3.073882712130784,3.7653548359611566,0.0,-368.15281129,-5.414011930735294,Sr2Fe2H2OF10
mp-32001,,,,,,,
mp-505727,1.964,-0.5300917914633333,1.6209154872543097,0.0,-60.16905603,-5.0140880025,NClO
mp-757747,2.8044999999999995,-2.2893636231190486,4.0935380812166535,0.08098311749999088,-523.41287378,-6.5426609222500005,LiSn4(PO4)3
mp-19123,3.9675,-2.3730268808333332,3.388812741195641,0.0,-94.47444818,-5.90465301125,Rb2LiVO4
mp-13827,6.0657000000000005,-3.0973558154761904,3.336486962654997,0.04085117494047097,-648.26875922,-7.717485228809523,Ca(BO2)2
mp-765781,1.7843,-2.9846780846595244,3.0354110279504014,0.13411565196428474,-74.60955257,-5.329253755000001,LiVF5
mp-560323,3.4288,-1.3153802074884615,1.578345106505778,0.053586725096154815,-314.30638965,-6.0443536471153845,H11C4NO10
mp-771732,,,,,,,
mp-1009733,0.5848,-0.4489301116666666,1.9514592757007336,0.01391742750000047,-10.76910646,-3.589702153333333,Ca2Si
mp-707055,3.0947,-1.4074477279037498,1.9152644665021976,0.009348738559024737,-932.50544849,-4.856799210885417,Na2GeH12S2O7
mp-765667,,,,,,,
mp-560105,3.7626,-3.130561905953124,3.1513877854635632,0.0007903376197857527,-449.93502956,-7.030234836875,K3Ho(SiO3)3
mp-722980,2.057,-0.8549758718477783,5.736785848754032,0.002492087222218053,-344.63155874,-4.786549426944443,Hg4HN3O10
mp-767799,,,,,,,
mp-6356,1.0420999999999998,-0.9069754338541663,4.546701180314583,0.0,-57.64157495,-3.602598434375,Cd2GaAgS4
mp-23331,3.8981,-2.4751121257894737,6.51303017126253,0.0,-259.581907,-6.831102815789473,Si3(BiO3)4
mp-781774,,,,,,,
mp-322,0.7359999999999998,-0.5361617653124999,7.075922360408174,0.0516618090624994,-27.62786527,-3.45348315875,TlS
mp-667291,1.4154,-1.5158059160937505,7.162983520436312,0.0,-185.62623959,-5.8008199871875,ReHg2O5
mp-768257,0.3471000000000002,-1.9510843153009263,3.5785058413083184,0.041834546404321486,-348.02343588,-6.444878442222223,Na4Bi2C4SO16
mp-23911,5.2064,-1.5016517548523938,1.6835765451846034,0.004062565192298528,-414.49257651,-5.314007391153846,MgH20S2(NO7)2
mp-761970,,,,,,,
mp-540007,,,,,,,
mp-27747,0.9081,-0.2514655600000004,5.456715983365122,0.0,-35.915607,-2.99296725,PdI2
mp-6250,3.0535,-3.307099325879629,8.316578508058281,0.026640494583335617,-252.48307802,-7.013418833888887,BaTm2ZnO5
mp-552787,,,,,,,
mp-767740,2.3141000000000003,-2.5969937674587915,2.9037959538100884,0.050324150000003336,-382.4484878,-7.354778611538463,V(PO3)3
mp-557420,4.8697,-2.957832486619792,2.9725818663389063,0.0,-487.85052796,-7.622664499375,KBaB5O9
mp-677638,4.7813,-2.8067031677672323,2.7497096003090107,0.0,-948.06960153,-6.629857353356643,Na27Ca3Al5(P2O7)12
mp-680197,2.9337,-0.3705457041991673,2.647524780373475,0.09120118167608916,-385.69405909,-6.02646967328125,KAgC2(SN)2
mp-976181,6.587999999999999,-0.4130955079688885,1.1276225666028803,0.011445361666666988,-23.42913334,-3.9048555566666665,NaBH4
mp-721753,3.2366,-1.513984631171411,2.2405975790997013,0.05920311363636532,-272.48990971,-6.192952493409091,CsH7(C2O5)2
mp-23222,0.3607,-0.5275477049999999,4.992100214902032,0.0,-11.72337576,-2.93084394,Li3Bi
mp-756281,5.7744,-3.786610296916666,7.909363298790268,0.019077888749997385,-159.56272847,-7.9781364235000005,TmAlO3
mp-24831,3.7260000000000004,-1.4601303938542107,4.565681504369916,0.005059957631580403,-193.16511664,-5.083292543157895,DyH4I3O11
mp-705541,1.1466000000000005,-0.9316054795394728,5.165344444483331,1.0645691000000037,-129.91505503,-6.837634475263157,V10O9
mp-770839,3.011,-2.1045956654166678,3.1095633886531244,0.0,-298.08983772,-7.452245942999999,LiCr(CO3)2
mp-866301,2.3688,-1.3031031340476191,3.565132880545721,0.0,-142.96416985,-5.105863208928572,BaBSbS4
mp-773290,,,,,,,
mp-771050,0.3578000000000001,-1.4571129038709674,4.592339790744592,0.019101530067199942,-153.37125601,-4.947459871290323,Li7MgNi7O16
mp-705562,1.4745,-2.366576545995672,3.112959974156209,0.007030069318172849,-472.63593427,-7.161150519242423,Mo4P5O24
mp-571642,5.5969,-2.7915622921733334,2.160019490001637,0.0011051549999994137,-51.52740626,-4.293950521666667,CaCl2
mp-17832,4.995900000000002,-3.036263010153061,4.456014841057964,0.0,-186.19717484,-6.649899101428572,RbBaPO4
mp-714873,,,,,,,
mp-773675,,,,,,,
mp-777223,,,,,,,
mp-16180,2.9764,-2.184586756323529,2.4549506529978236,0.0,-90.16828184,-5.3040165788235285,Na6S2O9
mp-556983,3.2033000000000005,-3.1020732157499986,7.004010390285332,0.03755521614285051,-72.42291902,-7.242291902000001,LaGaO3
mp-6951,3.1745,-2.726417981214,4.63542579546934,0.0,-19.78047716,-3.9560954319999997,RbCdF3
mp-779056,3.9622,-2.619612810768848,2.806767208439837,0.009330155104167126,-326.14290592,-6.7946438733333325,Li2FeP2O7
mp-560365,3.3602,-1.379673440648148,4.526072768188233,0.0,-133.3259845,-4.937999425925926,Rb2Zr(IO3)6
mp-570168,3.6395,-1.4347661071428572,3.4730445862720547,0.0051130391666665,-79.24639064,-2.8302282371428573,Rb2ZnBr4
mp-776274,0.4722999999999997,-1.871986301428572,3.7271292315427216,0.08481638600446839,-352.49159813,-6.29449282375,Na5Bi2As(CO4)4
mp-764885,1.2663,-2.3062493810569094,3.1718722564216884,0.08365972864836024,-297.68662018,-7.260649272682925,LiFe8(BO3)8
mp-540773,2.5192,-1.7769900707142858,2.572801198151861,0.0,-139.78930825,-4.9924752946428566,Ca2GeS4
mp-755420,2.9068000000000005,-3.5961494240476184,6.581803962985925,0.05055705160714297,-106.5611081,-7.611507721428572,SrSm2O4
mp-763556,,,,,,,
mp-3143,4.9638,-2.3133104304464283,2.5948770681998843,0.003904704285718097,-78.54654153,-5.610467252142856,Na2SO4
mp-22968,5.4505,-1.1185220813766663,2.3929584875447594,0.0,-52.51973669,-4.376644724166667,NaClO4
mp-3323,3.2114000000000003,-3.616342290083333,5.092976237175737,0.05508322750000083,-41.05588974,-8.211177948,SrZrO3
mp-625789,2.2086,-1.4886978949711107,4.158220967356319,0.07152823694444344,-195.34920477,-5.426366799166668,Sn3(HO2)2
mp-28477,5.2513,-1.3757613034096292,2.968779842365935,0.0,-84.10605550000001,-4.672558638888889,Sr(ClO3)2
mp-542435,2.2440999999999995,-1.0580845564183328,2.4450929655547373,0.0,-274.50151503,-5.718781563125,Li3ScN2
mp-561499,1.4824000000000002,-1.8006952343229168,5.756470029133372,0.008843403020828866,-135.66226809999998,-5.652594504166667,Dy3CuSnS7
mp-622217,,,,,,,
mp-30981,3.0704,-1.3865257451323076,2.9900605071111523,0.0,-264.32219359,-5.0831191075,Te(HO)6
mp-762671,0.6584,-1.4649743426771675,2.5312118263277608,0.4115516144642868,-202.72530423,-7.240189436785713,Mn2(CO3)3