id,band_gap,formation_energy_per_atom,density,e_above_hull,energy,energy_per_atom,pretty_formula
mp-559119,1.4664,-1.360058674,2.808366892,0.049280074,-115.5062383,-4.812759928,IN2O4F5
mp-22558,0,-0.528781491,4.295703002,0.239799999,-28.760015,-7.19000375,TiSi
mp-761886,0,-2.279098285,3.917272488,0.042105281,-158.5166603,-4.403240564,Li2Cu2F5
mp-29535,0,-1.038909535,5.424534081,0,-31.99085648,-5.331809413,CeSiI
mp-9018,3.2221,-2.463024122,4.199444816,0.000516285,-169.5173239,-6.054190139,LiCdPO4
mp-8181,1.2158,-1.133183123,4.945454648,0,-31.32112852,-6.264225704,Li2CeN2
mp-779579,0.1452,-1.629365419,4.720400481,0.124136267,-186.2103819,-5.819074433,LiCu5(PO4)2
mp-697742,1.0641,-2.375342689,3.031391472,0.02622673,-143.2726421,-7.163632103,MnP2O7
mp-777491,0.9151,-2.560967772,2.911562661,0.021057959,-556.2172567,-6.866879713,Li3V2P4(HO8)2
mp-763482,2.2631,-2.511454576,3.222871796,0.009752075,-103.0385154,-7.359893954,VPO5
mp-28513,4.3473,-0.870071207,4.236431139,0,-78.79661178,-4.377589543,Pb(ClO3)2
mp-23887,4.9654,-1.621600422,1.705700884,0.014871034,-119.2801399,-5.186093037,MgH12SO9
mp-862943,0,-0.36518884,9.129147833,0,-8.15300018,-2.038250045,NaPmHg2
mp-781494,0.103,-2.324351458,4.128743435,0.086089057,-194.6615384,-6.952197801,Li4Ti3Mn3(CuO8)2
mp-4002,6.4809,-3.700330496,3.459404288,0,-54.18974253,-6.021082503,Li2ZrF6
mp-14589,0,-0.750118717,8.793348718,0,-131.3911243,-7.299506908,Hf2Si4Ni3
mp-972117,3.6077,-2.397542464,4.907402955,5.79E-05,-117.9737055,-5.898685277,SrTeO3
mp-12929,3.6895,-2.842928695,5.59151555,0,-86.65484758,-7.221237298,SmAsO4
mp-21295,0,-0.340574426,7.169064937,0.003932122,-26.60754552,-4.43459092,Nd2In
mp-697128,5.2779,-2.271578962,2.296108258,0.004164938,-220.2435206,-6.117875573,KCa2P4H11O18
mp-28684,1.9007,-2.283118094,3.811605584,0,-441.3651564,-4.413651564,Sb7Se8F35
mp-555596,3.1497,-1.660427063,2.022130942,0,-134.8639452,-4.495464841,K6Si2S6O
mp-636328,0,-0.642694794,10.02818495,0.006187732,-26.00233238,-6.500583095,TiPd3
mp-567185,1.3638,-0.361672323,6.738838886,0,-161.3817012,-2.373260312,SnHg6(As2Br3)2
mp-504588,0,-1.296026302,3.786611369,0.040124082,-231.9834817,-5.799587042,Cu2H2CO5
mp-36940,6.1636,-0.241223235,1.045208635,0.403803023,-74.33268535,-7.433268535,Mg(CN)2
mp-979985,0,-0.676398511,15.87476685,0.012263166,-28.11059359,-3.513824199,YbAu3
mp-556911,3.2415,-2.737833857,4.050506951,0,-33.56286542,-5.593810903,FeF2
mp-1554,0.2686,-0.837744559,3.147462458,0.000166266,-35.56943142,-2.964119285,KTe
mp-4092,3.512,-2.171133414,4.167873778,0,-140.4240561,-5.851002336,SrSeO4
mp-12806,0,-0.094960321,5.852037128,0,-22.81833806,-3.803056343,Cu2GeTe3
mp-686718,2.958,-3.261281288,1.798698952,0.141150487,-579.7933437,-7.433247996,Sr5Al11TlSi13O48
mp-28501,1.0868,-1.863536558,2.915837701,0,-139.8685135,-4.995304054,K2(NbCl3)3
mp-542915,0,-0.395649804,3.360857571,0,-20.72403611,-5.181009028,TiAl3
mp-2484,0,-0.467931364,7.810934125,0.014812901,-18.6162669,-4.654066725,SmSn3
mp-675137,0,-0.737172159,4.548257836,0.01340631,-119.7972961,-4.436936891,Cu4Sn7S16
mp-14324,2.4329,-2.028800957,2.446436268,0,-125.0795283,-4.810751089,K2Na4Be2O5
mp-3319,1.1563,-1.665449937,6.010337931,0.01065747,-89.72404225,-6.408860161,Mg(RhO2)2
mp-1867,0,-0.235470482,14.78623529,0,-60.39116441,-10.06519407,Ta2Ni
mp-652494,1.3321,-1.145525714,5.713502028,0,-299.2584717,-6.505618949,Cs4Re6S13
mp-540747,0,-0.388847947,7.975104314,0.039227598,-198.6173413,-8.275722553,Nb3SiNi2
mp-2469,1.0461,-0.97116876,4.576805151,0.00121967,-6.32149041,-3.160745205,CdS
mp-776933,3.0921,-2.782091775,3.100587552,0.066503668,-170.884477,-5.340139907,LiFe2F5
mp-22662,0,-0.819415386,11.14746887,0,-38.88574212,-6.48095702,TiGaPt
mp-3161,0.1247,-0.217009582,1.966694013,0,-11.73242174,-3.910807247,LiAlSi
mp-1002115,0,-0.831497249,7.88157346,0,-23.53545596,-5.88386399,LaPd
mp-766208,2.0419,-3.363045197,4.881267133,0.006810191,-554.4840369,-8.401273286,Ba3LiTi5Nb3O21
mp-1805,0,-0.288402384,11.03162815,0.09596597,-43.0325151,-7.17208585,ErRh5
mp-1018175,0,-0.61870757,13.57896604,0,-23.84188128,-5.96047032,ThAu
mp-770625,2.5105,-2.608397402,4.466586296,0.002733002,-190.6597745,-6.80927766,Li4Al3Cr3(SbO8)2
mp-673073,3.9962,-2.497597684,3.378166274,0.036604232,-295.6535537,-6.719398948,LiSbP2O7
mp-631431,0,1.094423954,15.6298888,1.094423954,-24.59710521,-6.149276303,InHgW2
mp-11522,0,-0.185191371,9.475894645,0.00205181,-22.08493237,-5.521233093,Ni3Sn
mp-16116,0.8488,-1.502784501,5.687867697,0,-81.05759321,-5.066099576,RbSm2CuSe4
mp-567780,2.3927,-1.047425826,4.309394995,0,-51.11961574,-3.194975984,RbSn2Br5
mp-18258,3.2026,-3.684738868,7.610184227,0,-215.5134235,-7.696907983,BaTb2O4
mp-21089,0,-0.445422204,7.601535597,0,-35.72542518,-7.145085036,Ce(MnGe)2
mp-567694,0,,5.274310369,,-69.71862239,-6.971862239,La2C2Cl
mp-5915,2.7867,-1.079856265,5.403458972,0,-227.1835861,-5.679589651,TlNO3
mp-23583,0.5782,-1.795918847,3.339611787,0,-117.9598047,-3.276661241,Cs4BiSbCl12
mp-557391,4.815,-2.481108394,2.528933257,0,-112.0932844,-7.005830276,Na2Ca2(CO3)3
mp-22602,0,-0.522675022,7.920341504,0,-25.74066637,-3.217583296,CaIn2Au
mp-20007,0,-0.259026621,7.865307824,0,-81.34932723,-6.779110603,MnNiGe
mp-775202,1.2843,-2.413694,3.456810581,0.002619353,-235.9640692,-6.940119682,CrSb3(PO4)6
mp-555194,2.7834,-2.124402132,5.754469106,0,-47.28135197,-3.940112664,SiHg3(SF3)2
mp-766452,3.8787,-3.876329273,6.711847639,0.039974533,-209.2111947,-8.368447788,La9ErO15
mp-996956,0.5391,-1.038908214,4.368258063,0.012890363,-39.89498434,-4.986873043,CuHO2
mp-977534,0,-0.359124715,9.255036074,0,-40.81411371,-10.20352843,ZrNbTc2
mp-780288,1.0185,-2.23971733,3.096476246,0.086177525,-182.4202935,-6.080676448,Li3Si2(NiO4)2
mp-974335,0,0.051660387,11.99564169,0.052052914,-31.10019133,-7.775047833,RuRh3
mp-1008661,0,2.245216201,12.95627298,2.245216201,-8.00866281,-4.004331405,AuC
mp-542874,5.3046,-3.211454395,3.111850549,0.036742348,-295.918981,-7.397974526,LiAl(SiO3)2
mp-753541,1.0159,-2.17857857,3.634465054,0.044121993,-49.52187375,-4.126822812,LiCuF4
mp-555211,5.6207,-3.278434969,1.511264321,0.010716047,-379.4152393,-7.904484152,SiO2
mp-18246,1.4227,-0.917323376,2.974035992,0,-76.96294569,-3.498315713,K6MnTe4
mp-977564,0,-0.385847494,9.204486005,0,-10.08764289,-2.521910723,MgScHg2
mp-21562,0.7093,-1.544809094,6.685476202,0.005534439,-213.1439723,-5.328599307,Sm3InSe6
mp-19245,0.2883,-2.747520912,6.421554248,0.009548313,-74.64168368,-7.464168368,BaLaMn2O6
mp-767632,2.0763,-2.707385433,3.517096764,0.004106615,-183.8278922,-7.659495509,VPO4
mp-568237,0,-0.577242853,7.809593944,0.02010749,-215.8466611,-5.396166527,CeNiSb3
mp-779783,3.2011,-2.442248543,3.268974165,0.001581588,-336.6716721,-7.013993168,Li4MnFe3(BO3)4
mp-540951,5.3329,-2.830923739,2.968031251,0,-261.0091343,-6.868661429,Na2Sr(PO3)4
mp-30489,0,-0.187147057,8.035325275,0.010954924,-57.91892236,-1.524182167,La2Cd17
mp-14207,0,-0.52872398,5.913796465,0,-61.47423859,-3.07371193,Ba(ZnSb)2
mp-864696,0,-0.153160229,12.50860275,0.121003987,-28.09544975,-7.023862438,Ho2CoOs
mp-782643,0.444,-2.499393679,3.130696713,0.026779913,-258.0356697,-7.372447705,Li5Mn6(BO3)6
mp-699266,5.1763,-1.957646861,2.139382086,0.001343135,-545.3195512,-5.453195512,K2MgH8(SO6)2
mp-755391,1.5152,-1.937211289,3.615630694,0.061693798,-45.48056708,-4.548056708,BaNa2O2
mp-759172,1.9391,-2.293797234,6.766555095,0.000628737,-342.2975365,-7.131198678,TaSb3O8
mp-867181,0,-0.469498421,9.905548902,0,-8.80605865,-2.201514663,SmMgHg2
mp-16969,4.6923,-3.883412257,7.315483673,0,-266.7057153,-8.334553603,Lu2SiO5
mp-642238,0,-0.684100399,5.654289111,0,-216.2988493,-6.008301369,Y6AgTe2
mp-9489,2.4303,-3.368713299,5.194188411,0.01438622,-108.8770637,-7.776933121,NaSmTiO4
mp-764502,1.6929,-2.39191291,3.28391917,0.028476175,-322.1526541,-7.003318566,Li3Fe4(BO3)4
mp-9951,0,-0.317492506,8.207674868,0,-74.54283646,-8.282537384,MnNbGe
mp-778594,0,-2.360212739,3.282927623,0.040688535,-164.741156,-7.162658955,Na2V6O15
mp-851029,0.5382,-2.301989754,4.673514526,0.025470039,-182.2631932,-6.509399756,Li4Ti3Ni3(SnO8)2
mp-740719,3.2604,-1.896788968,3.786341612,0,-623.5127998,-5.375110343,Ba3In2(HO)12
mp-571540,4.0185,-1.534975709,2.700210715,0.003361705,-100.6254709,-2.795151968,ZnCl2
mp-772822,0,-1.48633328,4.958702913,0.075715778,-77.27053062,-5.151368708,Li3Cu3TeO8
mp-5992,0,-0.566658128,11.60510728,0,-48.63672085,-8.106120142,LaB2Ir2C
mp-21194,0,-0.669464136,8.211022929,0,-41.32450661,-6.887417768,NdGeRu
mp-735530,2.5401,-2.69758855,3.627295252,0,-241.4273276,-7.100803752,Ba2Fe3P6HO22
mp-774523,2.9263,-2.452974515,3.620582407,0.081442617,-259.9689321,-6.499223301,Li3Sb2(PO4)3
mp-975596,0,-1.164920647,11.37767989,1.391244913,-41.69944685,-8.33988937,PuIrO3
mp-976935,0,0.198890618,11.87602812,0.198890618,-33.68579484,-4.210724355,Ni3Hg
mp-571147,0,-0.762767142,8.567437299,0,-36.17521081,-7.235042162,Hf(SiNi)2
mp-781753,1.2105,-2.42248489,2.670992015,0.096508092,-163.4400176,-6.286154525,Li3CuP2O7
mp-560649,2.6642,-1.419600237,2.843040951,0,-207.3561125,-5.183902813,KLa(PS3)2
mp-5694,2.3147,-2.179341507,4.59495098,0,-21.56266641,-5.390666603,NaHoS2
mp-769207,3.0825,-2.013417649,4.497937224,0.078906892,-216.6966977,-6.373432286,Y2(SeO4)3
mp-554083,2.8585,-2.169028123,4.544434545,0,-263.7492787,-5.994301788,BaZnAs2O7
mp-29561,0,-0.739513263,8.000100696,0,-230.0770732,-3.834617887,CaSnAu
mp-867347,0,-0.31475559,5.007578795,0.065203513,-22.86180876,-5.71545219,Al3Tc
mp-756142,2.4279,-4.237056745,8.67828282,0.31380556,-186.5872348,-9.329361741,La2Th5O13
mp-29537,1.0552,-0.388737853,1.891769166,0,-31.60132282,-2.633443568,Cl2O
mp-30625,0,-0.257798305,10.28667207,0.004238062,-24.70246377,-4.117077295,Dy2Tl
mp-29577,3.0454,-0.874833889,3.516201152,0.023092199,-49.35813787,-4.113178156,CsBrO4
mp-865812,0,-0.454252013,9.834000949,0,-9.04871071,-2.262177678,LiSmHg2
mp-19435,1.6901,-1.855572874,5.374962468,0.004178475,-81.21287082,-6.767739235,CoMoO4
mp-998786,0,-1.710350932,7.413899502,0,-20.35849618,-4.071699236,TlPdF3
mp-721217,5.0961,-2.393134858,2.208614216,0.031271305,-320.8615606,-6.170414627,K2P2H2O7
mp-571582,0.6522,-0.40574278,6.94609567,0,-80.28576927,-2.230160258,TlHg3Sb2Br3
mp-40161,5.0441,-3.273459726,4.260698889,0,-294.2309951,-8.173083197,NaHf2(PO4)3
mp-753766,0.0367,-3.665119251,8.755995486,0,-160.266476,-8.435077683,Ho6ReO12
mp-23097,1.7286,-1.702030272,3.200369851,0.002224831,-42.22386631,-4.691540701,K2Os(Cl2O)2
mp-1018055,0,-0.918118142,17.38504791,0.015079033,-41.30858197,-10.32714549,HfIr
mp-1008832,0,-0.178584199,11.99887993,0.76436581,-19.53686979,-9.768434895,HfC
mp-972494,0,-0.085586894,3.589122284,0.017294944,-19.74340313,-2.467925391,SmMg3
mp-18344,1.5003,-1.001750683,5.265161033,0,-176.6341529,-5.195122145,Ta2Tl4S11
mp-684817,3.0471,-3.148492915,5.041479783,0,-306.2704767,-8.507513242,K2LiTa6(PO8)3
mp-29720,0,-0.222727185,1.194591913,0,-291.9396731,-2.807112242,Li21Si5
mp-29301,2.6305,-1.960085656,4.056829324,0.00340387,-126.9835105,-4.883981171,Ba4Ga2S7
mp-773884,0,-1.583606501,8.74264697,0.050210113,-556.9116561,-5.682772001,Bi19O30
mp-777567,4.2363,-2.826420687,2.311517792,0.099582928,-242.2042254,-5.045921363,LiFeF4
mp-704942,2.1007,-2.629496794,2.436918705,0.044274549,-324.72655,-7.059272827,Li2Cr(PO3)5
mp-16821,0,-2.579022272,6.341315211,0,-211.6251429,-7.054171431,Ba3PrRu2O9
mp-558135,1.6005,-1.80296821,2.128488829,0,-210.6195495,-5.542619723,Ti4S8Cl6O
mp-770173,0.7952,-2.207065403,4.004209679,0.050941146,-176.294078,-6.780541463,Mg2Mn3O8
mp-971819,0,-0.432181834,7.827262396,0.00573128,-18.22569698,-4.556424245,YLuIn2
mp-9381,0,-0.528779373,7.415099179,0,-70.78880725,-7.865423028,Zr6FeTe2
mp-865919,0,-0.179415606,6.367011208,0,-11.72744771,-2.931861928,MgAlAg2
mp-863944,0.7331,-2.81702084,5.576734072,0.052279168,-346.7746157,-7.22447116,Ba5V5O14
mp-84,0,0.045997455,6.939599844,0.045997455,-7.92679998,-3.96339999,Sn
mp-23046,4.3112,-3.011547484,4.509434739,0,-27.31661037,-4.552768395,SrIF
mp-933,0,-1.556240958,5.473715587,0,-14.22770781,-7.113853905,YAs
mp-776093,2.6314,-1.912196443,4.161430158,0,-111.1338384,-5.556691918,CsAsO3
mp-849565,2.314,-2.281944455,2.811388475,0.02368624,-726.6013695,-7.414299689,V2O5
mp-10816,0,-0.774293271,7.575036095,0.007447386,-39.97325144,-4.99665643,NdAgAs2
mp-780855,0,-1.633904262,4.59698894,0.117811215,-147.0392622,-6.126635925,Fe4O7F
mp-555507,6.4233,-4.125220884,4.17441489,0.007817624,-435.7254757,-5.733229944,Sr10Al2ClF25
mp-4959,2.9781,-2.607640124,5.399496606,0.049483306,-172.8910949,-6.174681961,Ca(GaO2)2
mp-19092,2.2831,-1.942001508,7.422439503,0,-84.80458054,-7.067048378,CoWO4
mp-755760,0,-2.112866065,4.394919662,0.051261487,-155.9656804,-6.498570018,CuBi(PO4)2
mp-13,0,0,8.027686062,0,-8.45983087,-8.45983087,Fe
mp-768665,1.8463,-2.412017473,4.08165028,0.09590174,-248.0140159,-6.88927822,LiBiB2O5
mp-707491,2.3645,-1.58015063,4.771688473,0.052121078,-757.2583031,-6.884166392,Re6H12Pb3C2S2(N2O13)2
mp-706631,4.6154,-2.559680325,2.330220032,0,-656.2141963,-6.835564545,Na2B3HO6
mp-772273,4.2489,-1.971562224,2.489082636,0.054219225,-221.8119246,-5.83715591,Li2MnH4(SO5)2
mp-1018656,1.5507,-1.005718261,2.962351979,0.018186874,-21.38712392,-3.564520653,Ca2H3Br
mp-862761,0,-0.610820117,12.43226681,0.045955926,-17.67245012,-4.41811253,PrBiAu2
mp-639154,0,-0.148373857,8.357962188,0.017281461,-207.9038712,-7.169099008,Co23B6
mp-768368,1.2568,-1.435330772,2.792062016,0,-21.75318636,-3.107598051,K4I2O
mp-865461,0,-0.278760015,9.417262952,0,-28.40841952,-7.10210488,LuZrCo2
mp-999200,0.3694,0.100583855,2.158413854,0.100583855,-21.29893324,-5.32473331,Si
mp-774465,0.6345,-2.125792274,2.71206885,0.012304342,-226.9081129,-6.303003137,LiMn(SO4)2
mp-558332,1.8748,-1.385933059,3.838731245,0,-68.35114539,-3.41755727,K5Au(IO)2
mp-21171,0,-0.225279635,8.616941994,0,-27.31102513,-6.827756283,MnGaCo2
mp-23956,3.4515,-0.332145806,1.584692794,0,-19.10897089,-2.729852984,K2MgH4
mp-8392,0,-0.863439523,3.922508334,0,-94.1917916,-6.727985114,Sc3Si3Ni
mp-770426,5.0178,-1.098103522,3.620816644,0.018337029,-153.2525067,-4.789140836,Ho(ClO4)3
mp-779893,5.4353,-2.846442742,3.495319872,0.008910248,-591.0123326,-7.387654158,DyP5O14
mp-781767,0,-1.581997437,4.129159083,0.067218024,-82.91744732,-5.527829821,Li3Fe2(CuO4)2
mp-631468,0,1.285669308,2.803407092,1.368265923,-7.889083,-2.629694333,SrScBe
mp-23963,3.1027,-0.92418509,4.426473365,0.037231269,-88.2358677,-4.411793385,HIO3
mp-974341,0,0.041347367,11.98555582,0.041739894,-62.28288682,-7.785360853,RuRh3
mp-20575,0,-0.73610905,7.238684441,0,-50.41617428,-5.041617428,Nd2InGe2
mp-569098,2.1756,-0.605846248,4.538322331,0.006307079,-719.8832597,-6.427529104,RbNa11(WN3)4
mp-8263,2.804,-2.275382523,2.453298957,0,-78.1451744,-5.581798171,KNa2BO3
mp-27184,3.2677,-2.478750472,5.837925533,0,-269.462584,-7.282772541,B10(Pb2O7)3
mp-694952,1.1469,-2.443324677,4.762410885,0.027510484,-301.647728,-7.5411932,Ti5Fe11O24
mp-698576,1.2333,-2.561282039,4.711532442,0.025668401,-308.536319,-7.713407974,Ti3Fe5O12
mp-646102,1.8217,-1.457063988,3.996233009,0.006289912,-149.8460514,-3.746151285,Al3Bi5Cl12
mp-24674,5.8481,-2.473845103,2.338106804,0,-248.4684915,-6.538644513,Be3P2(H2O5)2
mp-770707,3.0695,-2.565398575,3.024009867,0.024469688,-202.8789149,-6.33996609,Li2AlFeO4
mp-30587,0,-0.097649181,7.404796968,0,-21.33925746,-3.55654291,MgInCu4
mp-11904,0,-2.758431833,8.173474213,0,-146.2946145,-7.314730724,LiSm2IrO6
mp-7024,0,-0.258195161,8.255581662,0.02128766,-152.8893037,-7.644465186,Tb2C3
mp-686705,0.2677,-2.23042286,5.742384626,0.081733621,-271.8264535,-6.795661337,CaNb2Ga2(CuO4)3
mp-13265,0,-0.557209042,9.268537624,0.012864797,-39.23132802,-4.359036447,ErAgSn
mp-31380,0,-0.857662699,8.935676944,0,-23.21963291,-5.804908228,SmPd
mp-772434,1.7279,-2.186189168,2.627240149,0.014462632,-103.6739155,-5.759661971,Li4CrO4
mp-849675,0,-2.489290932,3.152169633,0.03688266,-515.3641471,-7.362344958,Li5Mn6(BO3)6
mp-11526,0,-0.340104965,9.623694001,0,-35.41009046,-5.901681743,TmNi5
mp-771303,2.1114,-2.514336981,2.727472159,0.088627375,-266.0181349,-7.389392637,LiMnB2O5
mp-754892,0.4777,-1.534234393,3.016856123,0.041459756,-16.20103554,-3.240207108,Rb3ClO
mp-7748,4.7338,-2.881524375,3.485223859,0.064990217,-25.06543259,-6.266358148,NaAlO2
mp-723002,2.9412,-0.89962033,2.65534453,0.024143592,-234.8108454,-5.104583596,Ag2H12S(NO)4
mp-601817,1.9394,-0.064816596,3.704057274,0.160241367,-170.474239,-6.088365679,Cu4H3C2N5
mp-636232,0,-0.631009946,11.805845,0,-17.75746461,-4.439366153,CeInAu2
mp-30094,4.7099,-0.2476821,1.240851522,0.139184444,-262.7864142,-6.569660356,H2CN2
mp-669421,2.8134,-2.538672519,5.753571196,0.381708838,-184.8669516,-6.60239113,AlTlSiO4
mp-770023,0,0.074732849,12.3509751,0.074732849,-61.94754252,-1.23895085,Ag2Hg3
mp-24761,4.6626,-2.579661107,3.250421339,0,-406.0708256,-6.767847093,RbGaBP2HO9
mp-555850,2.6271,-3.338058103,6.671465841,0,-38.8500236,-6.475003933,LuSF
mp-19048,4.8845,-2.736321893,6.023400344,0,-87.71362381,-7.309468651,BaWO4
mp-559243,3.086,-3.453759365,7.068975908,0,-110.2325855,-8.479429651,Nd2Ta2Cl2O7
mp-27258,0,-0.111137385,8.234014057,0,-46.66462646,-4.666462646,P3Au2
mp-685300,1.071,-0.975319851,1.987066351,0.000132968,-430.6462312,-5.251783308,Ti4P8S29
mp-694942,2.2684,-2.811884286,3.876743011,0.014741082,-293.2619533,-4.887699221,BaNa5LiCo5F18
mp-20870,0,-0.873310291,9.725948925,0,-53.37116298,-5.337116298,Dy2InPd2
mp-14638,6.1125,-3.100784497,4.023988565,0,-93.00570403,-4.650285202,Rb2LiGaF6
mp-2186,0,-0.683399992,10.50825765,0,-18.95549742,-9.47774871,NpAs
mp-769261,2.395,-2.02590337,3.036820235,0.023746564,-365.5787154,-6.303081299,Na6Sn2C4SO16
mp-625824,3.4704,-1.465390285,1.846329902,0.037819001,-270.6990591,-5.012945539,Sr(H8O5)2
mp-4035,4.1222,-2.371687097,4.576383163,0,-89.19234604,-7.432695503,RbReO4
mp-752438,0,-1.568363116,5.732877331,0.083743786,-196.4462909,-5.612751169,Tl3(SbO3)8
mp-780398,2.6467,-1.75454012,3.436050437,0.025848808,-394.0354757,-5.794639349,Al2(SeO4)3
mp-772082,2.1083,-1.567656,4.422468006,0.024773559,-50.99554906,-3.642539219,CaLaI5
mp-707874,1.449,-0.491434922,4.248483574,0,-188.2285971,-3.485714761,Ba7Cu3H17
mp-867164,0,-0.441713584,7.657394168,0,-20.01563896,-5.00390974,Pm3Sn
mp-690516,0.6911,-2.150060319,4.762156342,0.054022329,-54.32271423,-6.035857137,Sr2Co2O5
mp-10056,0,-0.42959613,11.23358522,0,-48.55800921,-8.093001535,UCo3B2
mp-11495,0,-0.468267625,12.38301881,0,-14.72842319,-7.364211595,LuRu
mp-978498,0,-0.245895749,3.091581295,0.021669129,-23.72929734,-5.932324335,Sc3Al
mp-863358,4.6749,-3.399199568,3.186070172,0.000814336,-425.53063,-7.336735001,KAl11O17
mp-861985,0,-0.939234055,13.30682082,0,-29.10252342,-7.275630855,Er2IrRh
mp-671510,0,-0.545589292,7.03695863,0.134517611,-258.1039656,-8.065748925,Sc3Re2Si3
mp-673145,0,-1.95557878,3.838719652,0.05588527,-248.7261653,-6.218154133,LiCu4(PO4)3
mp-274,0,-0.29871301,8.117053569,0,-69.76349782,-7.751499758,Nb5Sb4
mp-505249,0,-1.027189845,8.93692506,0.018521966,-69.8439095,-6.98439095,Th(NiP)2
mp-410,0,-1.089734568,16.6465163,0,-33.82339873,-5.637233122,YbPt2
mp-653697,0,-0.318967448,9.43434395,0,-271.6409066,-6.791022664,Ta(CoTe)2
mp-4957,0.0924,-3.171880797,4.678560996,,-155.0119327,-7.750596635,CaNbO3
mp-768536,1.8264,-2.16815848,4.624005449,0.024088278,-141.8764665,-5.067016661,Cs3LaO3
mp-866658,1.6903,-0.903467841,2.129161781,0.072277025,-147.15494,-4.746933547,H16RhN5(Cl2O)3
mp-760513,1.6458,-3.915405917,7.925903205,0,-81.74372369,-9.082635966,La2UO6
mp-23850,1.8315,-0.518985478,1.356126765,0,-71.38515579,-4.461572237,NaH2N
mp-9117,0,-2.262954937,6.587975427,0.012711523,-79.4043451,-6.108026546,Sr2YTlCu2O7
mp-560589,2.1919,-1.829550811,2.800527193,0.062264772,-280.0912529,-5.386370248,NbSe2SN2ClF6
mp-703595,0,-0.530000027,4.987018588,0.03325224,-76.15520644,-1.85744406,Cd13I28
mp-18774,2.4732,-2.567230421,3.130935663,0,-302.8370482,-6.882660187,NaFeP2O7
mp-768074,3.2939,-2.674225447,5.36668251,0.047812545,-287.1943043,-7.977619564,LiTaWO6
mp-776731,3.992,-2.351860717,2.854896677,0.021100021,-341.5630229,-6.568519671,Na3Li3Fe2P2(CO7)2
mp-865736,0,-0.700555886,12.02912396,0,-18.58559024,-4.64639756,YbBiPd2