id,band_gap,formation_energy_per_atom,density,e_above_hull,energy,energy_per_atom,pretty_formula
mp-505759,0,-0.677225113,7.41705686,0,-242.1497975,-7.567181171,Zr5Sb3
mp-531132,4.9795,-3.343850671,2.978660076,0.004702019,-658.7549734,-7.239065642,Ca3(PO4)2
mp-1019522,5.6734,-3.009281927,3.335681364,0.001980436,-459.5053748,-7.922506461,Ba2B10O17
mp-653005,0,-1.954384641,4.65288979,0.021261422,-380.8664946,-6.681868326,Ca2(Fe2O3)11
mp-753490,0,-0.341573227,6.936132048,0.080671417,-35.28777102,-5.88129517,TiCuGe
mp-754628,0.8351,-0.463359974,4.889889595,0.086390622,-121.0186017,-10.08488347,WN2
mp-11957,0,-0.573312919,8.556222428,0,-42.3563365,-5.294542063,CaSn2Ir
mp-571580,0,-0.477245765,9.189014225,0,-389.1146916,-4.863933645,Er14(InPd)3
mp-1007854,0,0.019723665,8.630343704,0.107436747,-25.71570565,-6.428926413,FeNi3
mp-607806,1.5215,-1.912767761,7.279699535,0,-182.1781204,-6.506361443,Ho3Se3N
mp-554873,3.2653,-2.529754354,3.214844905,0,-688.8532301,-7.48753511,Ag2B8O13
mp-17885,0.6348,-0.852741396,5.454702056,0,-145.9257118,-4.053491994,Ba2Ge2Te5
mp-546790,1.1967,-2.084155719,6.99924791,0.006948041,-49.462674,-6.18283425,LaCuTeO
mp-605461,1.6805,-1.771170956,2.557975237,0.079458835,-798.7424158,-6.656186798,K3UH6C5SNO13
mp-23009,2.4258,-1.511443231,3.471368258,0,-19.63184948,-4.90796237,Ca2BrN
mp-570788,0,-0.519141718,10.36599568,0,-129.2421255,-5.385088562,Yb3Ni7B2
mp-9939,0,-0.653533695,12.21433887,0,-52.98360582,-8.83060097,Hf2Ge
mp-9008,1.108,-0.671781228,5.837094122,0,-18.89582583,-3.149304305,RbTeAu
mp-12564,0,-0.32206159,8.08020598,0.066975608,-10.27512527,-3.425041757,LiSbAu
mp-850933,0,-1.632774151,4.543407507,0.118941326,-147.0121395,-6.125505814,Fe4O7F
mp-24348,4.9612,-2.43946683,3.647931153,0,-246.8090885,-6.855808013,BiP4HO12
mp-680539,0.0275,-0.329374744,4.957345914,0,-144.7455507,-2.783568282,K11(In2Bi3)3
mp-11905,0,-2.733765532,7.820024007,0,-145.9962743,-7.299813715,LiNd2IrO6
mp-6595,0,-2.25272598,6.50225987,0,-130.6935164,-5.94061438,Sr3CuPtO6
mp-863659,0,-0.396746346,9.367759971,0.00113313,-10.43487599,-2.608718998,LiScHg2
mp-4938,0,-0.542688705,6.554708071,0,-44.27570549,-7.379284248,ScCo3B2
mp-28610,0,-1.437840786,3.819866017,0,-29.34964097,-2.934964097,CsAgCl3
mp-567462,0,-0.496133709,5.052143675,0.00094978,-134.4310262,-8.401939136,Sc3RhC4
mp-861913,0,-0.20850462,6.183489298,0.008275764,-15.70098211,-3.925245528,LiDy2Al
mp-721901,5.2017,-2.12371628,1.894339229,0,-617.7445696,-6.177445696,K2B4H8O11
mp-16884,1.1586,-1.111650276,6.557332946,0,-104.2497635,-4.738625615,RbEr2Cu3Se5
mp-560882,3.4204,-1.161506955,3.818278654,0.010240277,-61.70740264,-5.142283553,SeO2
mp-675300,2.862,-3.799006785,7.214313892,0.15753529,-195.2502969,-8.875013496,Ho2Zr2O7
mp-4297,0,-0.449669033,10.73010513,0.014563371,-33.1435177,-6.62870354,U(GePd)2
mp-541743,0.1517,-2.557807427,6.942849948,0,-204.4790104,-6.815967014,Ba3YbRu2O9
mp-973535,0,0.616575108,1.24346962,0.616575108,-7.19723959,-1.799309898,K3Sc
mp-981247,0,-0.196528726,8.9738987,0,-130.039419,-5.418309127,Zn7Sb8Ru9
mp-16960,0,-0.86268887,15.39405625,0,-147.5986207,-6.14994253,AlPt2
mp-22896,3.646,-2.854713809,3.718763028,0,-40.2139994,-5.026749925,LaCl3
mp-5769,3.0469,-2.230387482,4.347674166,0,-89.20004958,-5.575003099,Li3SbO4
mp-23651,3.4006,-2.564093266,2.945362552,0,-283.3526818,-6.159840909,Na4Al3Ge3IO12
mp-972323,0,-0.415803495,11.97658166,0,-44.34876401,-11.087191,TaNbTc2
mp-3633,0,-0.427082081,5.332373582,0,-73.94362717,-5.687971321,Er(Al2Fe)4
mp-770611,3.2894,-1.778407174,2.40542213,0.029875472,-274.1516633,-5.483033266,Li2CoH8(SO6)2
mp-23522,4.5948,-2.244962133,3.205309967,0.006518186,-86.73038876,-3.613766198,BaZnCl4
mp-30732,0,-0.649639537,11.72762164,0,-42.21621455,-4.690690506,HoTlPd
mp-30603,0,-0.11790246,8.316671776,0.007042096,-29.75139807,-4.958566345,ZrCu5
mp-867154,2.631,-0.474310159,2.44484696,0.007485357,-97.63083136,-4.437765062,BP4(SBr)3
mp-558111,3.3104,-2.904709203,3.419809859,0,-44.17714768,-4.908571964,Rb2MnF6
mp-36982,0,-1.729269045,3.139257748,0.013931428,-326.887553,-6.53775106,Mg(TiS2)8
mp-10378,0.6214,-0.30495735,4.228331708,0,-8.03334578,-2.008336445,Cs3Sb
mp-703539,3.2973,-0.358130007,2.66732818,0,-494.734794,-4.94734794,AgB11H6CBr6
mp-23451,1.3066,-1.281429825,3.976184912,0,-109.1214569,-3.897194889,Cs3Cr2Br9
mp-979266,0,-0.184817661,6.933223363,0.01539607,-37.27284229,-4.659105286,Sm3Al
mp-11670,2.734,-1.452064881,4.516923655,0,-209.2747905,-8.049030403,BaYSi4N7
mp-22605,0.3331,-0.557668464,5.492169384,0,-76.09963794,-5.435688424,Cr2CdSe4
mp-10922,0,-0.622417755,6.686661457,0,-139.4679353,-6.641330252,Mg2Co12P7
mp-541878,2.3158,-1.136845874,2.425900849,0,-156.0794664,-4.335540733,K2Ge2S5
mp-12779,0.6198,-0.458508028,5.466196012,0.004014725,-9.94833108,-2.48708277,CdTe
mp-572456,0,-2.289147469,7.514661287,0.00962709,-395.9606777,-6.186885588,YbGeBiO5
mp-1018047,0,-0.809378074,6.622381383,0,-21.10949025,-5.277372563,LaSn
mp-1018753,0,-0.371956929,8.700728626,5.77E-05,-18.64829169,-3.108048615,LaTlCd
mp-760758,2.1749,-1.781096086,8.308172726,0.096718153,-88.53942878,-5.533714299,Bi3O4F
mp-21156,0,-0.293683435,11.00909619,0,-16.90661422,-4.226653555,TbPb3
mp-772925,3.0153,-3.197637769,3.286129888,0.026271285,-329.9698056,-7.856423943,Li4Ti5O12
mp-24461,2.3892,-0.786329825,2.60043919,0.02024803,-115.1431161,-5.233778004,H12OsN5Cl3O
mp-570930,0.4275,-0.457909704,7.631969474,0.007946077,-36.76811812,-4.085346458,Bi2Pb2Se5
mp-593,0,-0.210122568,6.853922289,0,-218.4705462,-4.201356657,Al4Cu9
mp-29576,1.2371,-0.076539339,4.773535353,0.034748264,-123.6045055,-3.635426631,Cd7P10
mp-775277,0,-2.229609017,6.450243723,0.008975312,-187.9177333,-7.227605125,K(WO3)3
mp-12759,0,-0.150083986,11.04927617,0,-21.03780699,-2.629725874,Zn2CuAu
mp-560625,3.3783,-1.997652288,6.23693757,0.010213082,-96.57681378,-6.898343841,RePbClO4
mp-556001,4.9784,-2.957610461,2.473273938,0,-798.4116654,-7.128675584,NaBeSi3HO8
mp-983550,0,0.169498794,13.81337995,0.169498794,-75.85445369,-9.481806711,Pa3Nb
mp-779582,0,-0.428587303,1.793840982,0.04692374,-82.84456631,-1.882831053,Rb19O3
mp-30719,0,-0.201028986,6.366309392,0,-16.46178931,-1.371815776,Mg2Hg
mp-632656,0.028,-0.715032059,7.479439164,0,-102.9444,-4.289350002,HoH3
mp-16514,0,-0.563706636,6.669343489,0,-44.64524503,-5.580655629,Al3Ni5
mp-982017,0,-0.378884961,9.135550453,0.002669518,-17.50050379,-4.375125948,PrYTl2
mp-382,0.279,-1.347238519,9.379556528,0,-100.5034965,-7.178821175,Th3As4
mp-770894,2.2453,-2.712315333,3.093253064,0.007134556,-476.6919392,-6.620721378,Li2CrPO4F
mp-981397,0,-0.083924511,4.961437236,0.011051203,-9.85688728,-2.46422182,YbPrMg2
mp-1008275,0,0.162435858,7.462201426,0.171014002,-34.03862463,-8.509656158,Cr3Ni
mp-542593,0,-0.796192531,9.897820989,0,-104.23674,-6.514796249,NdGe2Ir
mp-10950,0.2247,-2.902053402,3.71503734,0.002379894,-89.82500344,-6.909615649,Sr2Cu(PO4)2
mp-28639,0,-0.152075546,6.821307429,0.005078635,-105.1412982,-3.28566557,Tl2GeTe5
mp-4088,0,-0.614903754,6.237555033,0,-35.77140637,-7.154281274,La(FeSi)2
mp-570921,0.9452,-1.895206982,3.722201226,0,-275.889586,-5.305568961,CsLu(NbCl3)6
mp-1017,0,-1.549442351,6.606179112,0.00429321,-72.13350095,-9.016687619,Zr3O
mp-568565,0,-0.184269732,6.508013309,0.01377579,-29.30617014,-7.326542535,CrAs
mp-2282,0,-0.685026934,4.624251865,0.012389355,-59.04869742,-4.920724785,NiS2
mp-1,0,0.040792124,1.899815347,0.040792124,-0.85459793,-0.85459793,Cs
mp-695866,6.2707,-1.592477357,1.555145301,0.066795097,-300.4867963,-5.008113271,BeH8(NF2)2
mp-989522,0.2261,-0.489428594,4.945785235,0,-35.67905211,-3.567905211,Mg6Bi2PN
mp-11653,6.9876,-2.747379445,2.925613735,0.038977581,-136.4347751,-7.579709729,BPO4
mp-5972,0.2524,-1.911337052,5.002742551,0,-67.29024207,-4.205640129,CsPd2F5
mp-8128,3.3344,-3.006664491,5.241532985,0,-53.16597089,-6.645746361,NaNdO2
mp-766289,0,-3.753486575,10.80349868,0.033041416,-307.3209891,-10.24403297,ZrU9O20
mp-555999,0.2243,-1.277221553,5.58220981,0.043983047,-182.8936827,-5.379225962,Np(IO3)4
mp-28299,2.1387,-2.181346488,4.566181971,0,-278.6830651,-6.967076627,USe2O7
mp-12900,0,-0.830328315,7.521959591,0,-46.65614232,-5.83201779,HoSi
mp-861604,0,-0.491161585,6.72865963,0,-12.03765703,-3.009414258,Ca2TlPb
mp-570885,0,-0.607376496,7.557417982,0.005965376,-219.6440561,-5.491101403,LaCoSb3
mp-769481,3.54,-3.429908622,4.926164365,0.020552922,-485.6689598,-8.094482664,Y4Ga2O9
mp-28246,0,-0.013558674,7.016015929,0.011150295,-12.31015366,-3.077538415,AgTe3
mp-8184,3.1087,-2.240653704,3.94908686,0,-89.08481746,-5.567801091,Li2ZnGeO4
mp-687090,3.2776,-2.60185729,4.536277701,0,-522.2919939,-7.913515059,Hf(MoO4)2
mp-762988,3.5933,-2.96821272,3.135199044,0.096538166,-113.956343,-5.697817152,LiMnF3
mp-23408,1.0173,-0.698614688,7.225972238,0,-169.0845632,-3.842830982,Tl4Bi2S5
mp-23033,1.9398,-1.668676619,3.955978439,0,-19.24913636,-4.81228409,Sr2NCl
mp-557735,0,-1.827725353,5.846233543,0,-123.9972028,-5.636236492,BaCuTe2O7
mp-780087,1.1633,-2.603720947,3.78530436,0.077880336,-199.7735853,-7.134770903,LiMnSiO4
mp-631353,0,0.934237321,14.4113259,1.196245002,-24.8572234,-8.285741133,MnRePt
mp-772886,3.9737,-2.823736861,2.699857698,0.05791717,-105.73938,-4.806335456,BaLa2Cl8
mp-32689,1.426,-1.891678193,6.286760648,0,-235.9540169,-5.898850422,Pr2Se3
mp-989604,1.8386,-1.112680412,4.819004197,0,-187.0021833,-9.350109167,YMoN3
mp-755263,0,-0.975972633,3.360890995,0,-19.49345883,-6.49781961,CrS2
mp-542158,1.9991,-2.015044687,4.199603554,0.06955203,-208.0132606,-6.500414394,FeNiPO5
mp-1132,0,-1.385812637,7.791430667,0,-7.91277482,-3.95638741,CdO
mp-14245,0,-0.976482382,7.764192354,0.001692714,-136.2862224,-6.81431112,Dy2Si5Rh3
mp-862555,0,-0.242881175,3.595054558,0,-19.56236883,-4.890592208,LiY2Al
mp-764985,0.4702,-1.770122716,4.576342917,0.027052843,-220.8892012,-5.812873717,Li8Fe3Co7O20
mp-510459,1.0502,-1.945645202,4.585037127,0.033512234,-99.00014779,-7.071439128,MnVCuO4
mp-754500,2.8497,-2.312223891,3.445436621,0.058454618,-169.0256191,-6.500985352,LiSn2P4H3O16
mp-11521,0,-0.505766273,5.419870705,0,-13.12232608,-6.56116304,ScNi
mp-774390,0.8643,-1.789655436,4.468556658,0.094798067,-327.3989212,-6.820810859,Mn3SbO8
mp-36086,1.0371,-2.665726454,3.951812754,0.067366547,-54.06852952,-6.75856619,Li3NbO4
mp-722245,2.3718,-0.834049425,1.69738586,0.090871544,-253.5433178,-5.762348132,K2H2C2S2N2O
mp-673174,0,-0.163831829,7.440142251,0.016803386,-280.0146409,-8.485292149,Fe8N3
mp-552200,2.7128,-2.956151736,7.706377103,0.014282857,-74.5228979,-7.45228979,Ba2TaBiO6
mp-4362,0,-0.672650299,6.724649592,0.022733816,-62.48745871,-4.463389908,Cu2Ag2O3
mp-568949,2.1998,-0.86297025,6.58251254,0.022587255,-11.4438089,-2.860952225,TlBr
mp-2338,0,-0.387426237,7.875205893,0,-16.6707941,-2.778465683,TbZn2
mp-559614,0,-2.580262467,6.747123574,0.040457661,-136.4918131,-6.824590656,Sr2ZnReO6
mp-667292,4.4841,-3.142195822,2.362520996,0,-1156.099905,-7.225624409,K2MgSi5O12
mp-766367,0,-3.379648691,8.989924843,0,-162.8452413,-8.570802175,Dy5(ReO6)2
mp-19814,0,-0.25955274,6.943241623,0,-31.70519638,-5.284199397,NiAs2
mp-560042,1.4827,-1.573326857,2.494037314,0.054106455,-233.3970593,-4.862438735,AsS3(NF3)2
mp-773463,0.9381,-2.167210136,2.647560264,0.001379701,-155.3667178,-6.47361324,K2CoPCO7
mp-753459,1.5116,-3.076450973,4.883745311,0.052349291,-95.18583469,-8.653257699,Nb3O7F
mp-24170,6.0672,-2.239120034,2.325471127,2.35E-05,-216.7561608,-6.021004466,CaPH3O4
mp-976151,0,-0.087631847,5.241864706,0.005036036,-12.91028996,-3.22757249,PrErMg2
mp-4793,0,-0.627105175,9.865256535,0,-35.63584033,-7.127168066,U(SiPd)2
mp-20293,0,-1.095969686,11.27491935,0.014222239,-74.73533308,-6.227944423,SmGePt
mp-11115,0.9809,-0.42522689,5.030436197,0,-62.28655773,-3.892909858,RbCuPdSe5
mp-675345,1.4487,-0.882213097,6.246669745,0.063398527,-225.5610887,-4.027876585,Bi5(S2Cl)3
mp-6600,4.8135,-3.244179403,2.977192783,0,-227.4891397,-7.582971324,K2Zr(SiO3)3
mp-775713,0,-2.245992146,3.718847043,0.083785173,-164.1215406,-6.838397523,NbNi3(PO4)4
mp-770558,1.2825,-2.395511181,3.136402227,0.006058237,-287.3520238,-7.183800596,MnP2O7
mp-505825,1.3753,-0.057362258,5.334605607,0,-26.58536746,-5.317073492,Cs2PtC2
mp-697676,2.7918,-1.71172453,6.668513297,0.001274525,-168.4739381,-5.615797937,H2Pb4SO8
mp-8110,5.8309,-3.137699723,3.497216468,0.030434987,-77.58874792,-7.758874792,AlBO3
mp-20517,0,-0.26000615,10.49138647,0,-93.01190817,-5.813244261,BPd3
mp-1253,1.9607,-2.048119619,4.805292475,0,-9.51033231,-4.755166155,BaSe
mp-20298,0,-0.479889233,7.780748493,0,-8.42798591,-4.213992955,SmIn
mp-643066,4.2653,-1.817144489,3.223798224,0,-97.40619008,-5.411455004,ZnH2SO5
mp-865524,0,-0.819185481,12.45681315,0.001353667,-22.77251823,-5.693129558,YCdPt2
mp-999566,0,0.277050198,8.548310989,0.292344679,-25.43693622,-6.359234055,Mn2CuSb
mp-759071,4.3073,-2.479243329,2.973249535,0.061613601,-246.035717,-6.834325471,LiSb(PO3)4
mp-26650,0,-2.472511904,3.321006283,0.099996894,-147.0389922,-6.683590552,LiSnP2O7
mp-1016883,0,-2.263885814,4.778117098,0.759047436,-33.81902343,-6.763804686,ZrZnO3
mp-2286,2.9974,-1.26326638,2.826921615,0,-11.09524385,-3.698414617,Li2Se
mp-3262,0,-0.829205506,7.91424294,0,-33.69482881,-6.738965762,Tm(CoSi)2
mp-5273,1.2794,-1.415424951,4.659038919,0,-17.84054584,-4.46013646,KPrTe2
mp-672265,0,-0.106118593,9.619115513,0.000964844,-125.3034519,-4.475123283,Cu3Pd
mp-975909,0,-0.349846438,14.55420497,0.00940558,-13.12822329,-3.282055823,LiAu3
mp-849509,2.7213,-2.741237172,3.082136488,0.035331307,-476.9623235,-6.624476715,Li2VPO4F
mp-961708,0,0.147897239,10.33093391,0.615507251,-18.47813469,-6.15937823,NbInPt
mp-763519,0.507,-2.185742943,4.543517633,0.041220302,-194.8247948,-6.958028384,Li4Mn3Nb2Co3O16
mp-775180,0.529,-1.806487938,5.728779149,0.083552684,-174.4694142,-6.231050507,Li2Co3WO8
mp-1009460,0,0.04347618,13.31626596,0.04347618,-29.73225489,-9.91075163,Hf
mp-26875,1.4347,-2.307139103,3.31088865,0.063907595,-194.751222,-6.085975689,Li2CuPO4
mp-505558,1.1134,-1.263438324,6.91801516,0,-124.2522519,-5.177177162,Dy3CuGeSe7
mp-23126,2.3602,-1.652358334,3.914969404,0,-66.4075517,-5.533962642,KAs4IO6
mp-676951,2.8182,-3.724156901,7.582324999,0.067507354,-188.9602062,-8.589100283,Dy3NbO7
mp-662534,0,-1.741495786,4.760583335,0,-149.2392539,-4.145534831,AgIrF7
mp-558045,5.1689,-2.701442741,2.494727935,0,-196.3253755,-6.135167984,NaLi2PO4
mp-773330,0,-2.023459114,4.563233115,0.096840232,-92.4002892,-6.600020657,Li2Mn3SnO8
mp-6280,5.6953,-3.550839263,3.437625272,0,-258.5033517,-7.180648658,Al2Si(O2F)2
mp-996969,1.4298,-1.164402962,7.700585124,0.002777622,-39.67472148,-4.959340185,AgBiO2
mp-30032,2.0261,-0.842755055,5.509518686,0.095566868,-51.69639901,-4.308033251,TlIO4
mp-760188,2.2294,-3.096773701,4.15207778,0.032026564,-381.6375388,-8.673580427,Nb3O7F
mp-704197,1.6961,-2.581190611,3.314686234,0.048874543,-357.3347061,-6.871821271,Li2Mo(PO4)2
mp-977435,0,-0.951070123,8.407869649,0.000624133,-30.79378147,-7.698445368,ZrAlRh2
mp-4106,0,-0.863559269,10.01353226,0.016114631,-39.92116519,-4.435685021,YbSnPd
mp-849071,0,-1.052215126,4.155635865,0,-100.2665832,-7.161898801,Cr3S4
mp-849429,1.5985,-2.533222356,3.70071193,0.095969763,-110.7810368,-5.035501674,Li3Co2OF5
mp-978829,0,0.171975558,8.734873894,0.171975558,-23.4153729,-5.853843225,Sm3Hf
mp-556826,5.4568,-3.13093657,2.96399123,0.016955188,-650.1787769,-7.740223534,Ca(BO2)2
mp-758379,0.9859,-3.7684276,6.602583498,0.033988621,-414.5689511,-9.422021616,Y11Ta5O28
mp-16522,0,-0.617000593,5.071369701,0.03675003,-14.52535009,-4.841783363,Al2Pd
mp-777787,3.6679,-2.805256083,6.658085839,0.069319723,-171.8524032,-7.160516799,HoAsO4
mp-853240,0.5174,-1.720922658,4.690605246,0.064698184,-89.92195201,-5.620122001,LiCoO2
mp-24405,1.8569,-1.932608226,5.075349939,0,-291.128839,-5.598631519,LiCd4Ge5HO15
mp-4105,0,-0.587206161,7.398194032,0,-26.56331146,-5.312662292,Ho(CuSi)2
mp-850914,2.5802,-3.029031367,2.698871088,0.057702548,-342.5894418,-5.190749118,Li4CrF6
mp-30529,4.7472,-0.140118043,0.658533301,0.022124712,-285.0864997,-4.454476558,B5H11
mp-22887,1.2144,-2.752019169,4.760382863,0.00279033,-84.21756288,-7.01813024,EuCl2
mp-573202,2.2944,-1.24519318,3.739497668,0,-166.3327543,-5.197898571,K3Ta2Ag3S8
mp-975646,0.1295,-1.827578196,6.669451507,0,-43.44116495,-5.430145619,PrZnSbO
mp-779046,2.0374,-2.537249874,2.89381019,0.033522812,-197.7321275,-6.179128983,Li5Cu(PO4)2
mp-625560,3.8402,-1.208993905,1.995694116,0.016054172,-100.5706999,-4.571395449,H7BrO3
mp-571617,0,-0.540848616,4.74795493,0,-82.07408726,-3.419753636,Sr2LiInGe2
mp-21581,0,-0.114736515,8.760573728,0.033717666,-161.8688186,-6.225723791,Tb(FeSn)6
mp-560670,3.1258,-1.89216376,3.52729216,0,-133.4099108,-5.558746283,MgSeO4
mp-972205,0,-0.309023631,11.42040048,0,-41.47353919,-10.3683848,V2MoOs
mp-21884,0,-0.43875389,6.721197092,0,-24.60707531,-4.921415062,EuGa4
mp-631494,0,0.116105607,7.249037542,0.601407834,-21.21261869,-5.303154673,SrCrPd2
mp-14169,0.3374,-3.491253055,4.665490812,0.000343611,-302.7039104,-5.821229047,Li4UF8
mp-13664,2.928,-3.52498017,6.791601755,6.05E-05,-190.8774184,-8.676246292,Sr2Ta2O7
mp-1402,0,-0.363526033,9.355842767,0,-34.72688033,-5.787813388,SmNi2
mp-30942,6.5478,-3.962575493,4.075099622,0.00241258,-279.5853012,-5.48206473,Ba6Mg11F34
mp-770394,1.4146,-2.306429072,2.83903857,0.013013734,-328.4934894,-6.569869788,Na5Fe2P2(CO7)2
mp-980648,0,-0.480343225,12.07038011,0,-32.34149328,-8.08537332,TmThRu2
mp-775782,0,-1.940888848,2.985577314,0.094433918,-347.5307116,-6.435753919,Na4Sn2C4SO16
mp-628618,0.6046,-2.234343442,5.772205409,0,-375.2565193,-6.949194801,Ba5Os3NO18
mp-30872,0,-0.541464318,9.100986097,0,-34.10618343,-5.684363905,ThSn2
mp-8804,2.6145,-0.866891244,2.904801287,0,-127.3117428,-5.786897399,Li6MoN4
mp-862679,0,-0.078709283,11.4989861,0,-117.0979091,-4.879079546,TaZn2
mp-703231,2.8381,-2.404284873,3.695871609,0,-238.6657898,-6.819022565,CdFe2Sb2(PO4)6
mp-17682,0,-0.080084759,7.045488695,0.071165006,-206.3610325,-8.598376355,Zr2Fe
mp-1018946,0,-0.534051165,6.700134555,0,-21.37866085,-3.563110142,PrZnGa
mp-863869,0.1991,-1.963308458,4.142875606,0.14836999,-97.14689455,-6.476459637,Li3Mn3FeO8
mp-21294,0,-0.385251218,5.669658669,0,-33.68476058,-5.614126763,Y2In
mp-40685,2.2791,-3.140187579,6.094661523,0,-335.5806708,-7.626833428,NaSm3Ti2(SbO7)2
mp-626435,4.9665,-2.116364391,2.390978176,0.022306134,-163.8444379,-5.851587068,Al(HO)3
mp-773721,0,-2.21982455,3.449875006,0.056279673,-251.9185955,-6.997738763,Mn2Cu(PO4)3
mp-1009008,0,-1.466897099,7.209131941,0.13054519,-11.00280086,-5.50140043,LaTe
mp-769490,0.0272,-1.958988019,2.739486578,0.035697898,-289.481581,-6.293077848,Na3Ni2P2(CO7)2
mp-778268,0,-2.697318715,3.54007155,0.085801588,-270.5659828,-7.515721744,Ti3CrSb2(PO4)6
mp-9380,3.0655,-2.360280054,4.687907446,0,-273.770087,-6.518335404,SrGe4O9
mp-557748,2.4943,-1.945100376,3.769950926,0.091485634,-574.0756478,-5.979954664,SbIrC2(OF3)2
mp-985296,0,-0.055112873,10.3155975,0.007112064,-13.88461416,-3.47115354,Ag3Pd
mp-975586,0,0.031634569,5.943119771,0.032451662,-41.38378048,-5.17297256,Pr3Y
mp-752671,4.0581,-1.75287487,3.854409706,0.018198144,-91.27040985,-3.38038555,Ba2SrI6
mp-1007758,0,-0.072170522,11.05508088,0,-22.02660642,-5.506651605,HfCd
mp-696656,7.0587,-2.143257766,1.873900031,0,-215.1381268,-5.378453169,BH4O2F3
mp-623027,0,-0.365489563,6.73143965,0.027931312,-54.778001,-4.564833417,Pr2Ga
mp-30444,0,-0.050255229,3.282211708,0.011808022,-192.3290152,-4.181065548,Be22W
mp-557028,3.0179,-3.580799718,6.857603792,0.019825329,-151.225232,-8.895601882,Sr2LaTa3O11
mp-772890,0.0233,-1.997599356,5.962508807,0.028607586,-253.0269595,-7.028526652,Np(SeO3)2
mp-20935,0,-0.719455016,11.33913735,0.020340256,-70.73733403,-7.859703781,ZrSnIr
mp-753022,1.5021,-2.163924109,4.750057977,0.108037344,-161.1960077,-5.757000274,NaGa5O8
mp-773906,4.9205,-2.70126521,2.594943631,0,-573.7931699,-6.83087107,KNaZrSi3H4O11
mp-27757,0,-0.023110046,1.981767245,0,-43.42415773,-4.342415773,Be4B
mp-1018680,0,-0.300306288,10.24118,0.018286086,-18.29227752,-3.04871292,DyTlZn
mp-10614,0.8282,-0.901035074,3.063702871,0.079945835,-11.70492558,-3.90164186,SrLiP