id,band_gap,formation_energy_per_atom,density,e_above_hull,energy,energy_per_atom,pretty_formula
mp-698183,4.8446,-1.6488481567585165,1.6171952748211833,0.017452944240530677,-415.79464102,-5.263223304050633,Mg3P2(H22O15)2
mp-763729,0.8336000000000001,-1.7736274986666671,4.2711019941796975,0.5469466163333419,-93.60670095,-6.24044673,Li3NbFe3O8
mp-772137,1.7512,-2.8401065635227267,7.6247776618880225,0.08481079318182605,-470.1220755,-7.12306175,Er2Sb2O7
mp-643010,3.2622,-0.4743451364774387,4.4390326730006935,0.0,-48.28215011,-3.4487250078571434,Cs2H4Pt
mp-733455,2.4521,-0.4962111214219994,2.5125880889886467,0.0,-149.86323721,-3.74658093025,Li3H6Rh
mp-766731,,,,,,,
mp-850864,3.1537,-3.85960987015625,7.283063460372444,0.04433137218750005,-276.66030754,-8.645634610625,Ho2TiO5
mp-743715,0.9537,-1.2333855607521056,1.3519390990043558,0.4002575390632863,-189.37382468,-4.9835217021052625,TiH10N3F5
mp-985590,5.5161,-3.27418979,2.0395558806834737,0.003807879166664918,-189.89832769999998,-7.912430320833334,SiO2
mp-22899,4.2337,-1.1962805858333334,4.063406225231379,0.03653280250000002,-5.82549309,-2.912746545,LiI
mp-553909,2.1345,-1.2162265400558034,5.3987635247187375,0.0,-281.79680421,-5.032085789464285,Tl2(SeO3)3
mp-760457,4.5917,-3.454981252083333,4.046782543920573,0.08504993799999737,-86.31473593,-8.631473592999999,YBO3
mp-867823,0.9210999999999998,-1.2574145503906262,3.9487655197456033,0.0,-89.76017744,-5.61001109,RbTaGeS5
mp-774251,3.3523,-2.511671543962586,3.0439580150354817,0.045523612499999366,-190.49147375,-6.803266919642858,LiFePO4
mp-695831,4.1801,-0.889454197981538,1.9278136132659935,0.08127006562615335,-330.90991207,-6.363652155192307,CaH4(N3O)2
mp-12237,5.2355,-2.843347817017857,3.39985159213382,0.0,-591.82044432,-7.397755554,HoP5O14
mp-579243,,,,,,,
mp-704952,,,,,,,
mp-756134,0.5998000000000001,-2.525665117864584,6.722708863008994,0.05068768708333238,-47.73254586,-7.9554243100000015,ZrSeO
mp-642398,1.8148,-2.2840894009027766,3.142675461700048,0.002857842083348494,-231.53871012,-6.431630836666668,RbVSO6
mp-697807,1.7853,-2.3139650606702045,3.0159543851299686,0.200055456625023,-509.84812519,-7.081223960972222,LiMn4P7O24
mp-765261,,,,,,,
mp-31986,,,,,,,
mp-556760,3.27,-2.7776045196683663,2.9082610474613344,0.008483117333334178,-327.74086094,-7.803353831904763,Nb2P4O15
mp-7955,0.5321000000000002,-0.6289041562500004,2.9779829715528847,0.008254537500000936,-24.74276954,-3.0928461925,Li3Sb
mp-771800,,,,,,,
mp-763935,0.9161999999999996,-2.758810908872221,4.174004900961819,0.03692194277778072,-130.88314233,-7.271285685,V6O7F5
mp-769612,0.6901000000000002,-2.556621490081852,3.228854995526339,0.07256793681248208,-279.14377857,-6.97859446425,Li6Mn3P6WO24
mp-554089,5.660399999999999,-3.275430365833333,2.2004032437657606,0.00256730333333266,-94.96405076,-7.913670896666668,SiO2
mp-771627,,,,,,,
mp-763547,,,,,,,
mp-14050,4.2497,-3.1518725821249998,3.9937425105654842,0.01178224187500021,-569.24070911,-7.115508863875,Ca3Ga2(SiO4)3
mp-565352,,,,,,,
mp-757608,1.8819,-1.7641081251689916,5.0815601289551084,0.014396731764700018,-185.18720751,-5.446682573823531,Hg2P2H4O9
mp-707096,6.462000000000001,-1.8965688611097267,1.9291946826966788,0.00924239149958517,-238.35549482,-5.675130829047619,K2P3H7O9
mp-3338,2.8582,-2.23169507875,3.7827123581742996,0.0,-87.03369671,-5.439606044375,NaGaO2
mp-23866,3.3846,-1.1565139717262498,2.6632879820166635,0.0,-140.21457791,-5.007663496785715,H2SeO4
mp-28264,4.254,-1.5363881293100004,2.7581751100928904,0.0,-56.81880754,-4.7349006283333335,RbH3O2
mp-555866,4.8109,-2.3352376363357146,2.082521768076092,0.0,-478.76325048,-6.839475006857143,K6Be4C6O19
mp-764255,,,,,,,
mp-6358,3.0371,-3.011045374977677,3.2116637931268968,0.0010069024999932452,-239.7490082,-7.49215650625,NaTiPO5
mp-767844,,,,,,,
mp-771530,,,,,,,
mp-767984,,,,,,,
mp-763564,,,,,,,
mp-765791,,,,,,,
mp-763299,0.8427,-1.8945728008000011,4.629066456219508,0.06550880300926121,-78.49407349,-4.360781860555557,Ni3OF5
mp-28263,4.3811,-1.5492128873099995,1.897013791757269,0.0,-114.46486877,-4.769369532083333,KH3O2
mp-557387,2.8578,-3.4635234469166662,6.040032099306003,0.034507542812502116,-156.12910645,-7.8064553225,Sr2TmNbO6
mp-561258,2.0288,-1.1425636035625004,3.996072731052786,0.0009393133571427016,-70.17577679,-3.5087888394999998,ZnS
mp-622251,,,,,,,
mp-767921,,,,,,,
mp-763035,,,,,,,
mp-9569,0.875,-0.7021007504285712,3.980765215313467,0.0,-18.85545942,-3.771091884,Ca(ZnP)2
mp-780323,2.2048,-2.9120229706226666,2.998061437190596,0.016607543833340618,-171.50626002,-5.716875334,V3OF11
mp-24960,,,,,,,
mp-770953,1.7507,-1.362071602142857,4.281097250358183,0.889042205714305,-166.91668014,-5.9613100050000005,Be(FeO2)2
mp-764519,1.5635,-1.993493804621211,3.2437044238935213,0.4192256089318436,-296.57089152,-6.740247534545454,LiFe2(BO3)2
mp-776084,4.5424,-3.413559814083333,4.0035310630596666,0.0,-222.88294177,-7.429431392333332,BaSiO3
mp-763446,,,,,,,
mp-32591,3.0752,-3.378631230875,3.556584272562911,0.05709709887500125,-593.94086753,-7.424260844124999,Al2O3
mp-622198,1.6477000000000004,-2.520924452631579,7.756213872176343,0.039635194078947215,-276.15274853,-7.267177592894738,Ti3(BiO3)4
mp-543028,1.9408000000000003,-1.2847908152083332,7.283593388461957,0.0,-226.49878454,-4.718724677916667,Tl2TeO3
mp-40066,1.372800000000001,-2.756578030311517,5.493016503682991,0.05745816116665736,-146.38479263,-7.319239631499999,CaLaMnFeO6
mp-684489,4.445,-2.5233803979599583,4.267886720928011,0.03702411440909259,-296.39501446,-6.7362503286363635,LiBiP2O7
mp-10233,2.9278,-2.095101243630556,2.687949062649051,0.0,-162.29767233,-6.76240301375,Ca2BN2F
mp-767216,,,,,,,
mp-763250,,,,,,,
mp-632706,4.51,-0.6335146273333326,2.2971745624519806,0.0958124966495566,-70.99766401,-4.733177600666666,ZnH8(N2Cl)2
mp-557022,2.8513,-1.7281218528700004,5.010368268401415,0.0,-474.1303108,-5.644408461904763,Sb8Cl2O11
mp-149,0.6229999999999993,0.0,2.281194246995464,0.0,-10.84678131,-5.423390655,Si
mp-770007,,,,,,,
mp-764365,,,,,,,
mp-675163,,,,,,,
mp-766866,,,,,,,
mp-19496,2.7787,-2.247898842333333,3.5678180213055013,0.0,-323.92088292,-6.7483517275,KV2SbO8
mp-762845,,,,,,,
mp-777137,,,,,,,
mp-868422,,,,,,,
mp-4152,0.3315999999999999,-0.9116747096428576,3.6842889848049616,0.07416377363094995,-33.43818007,-4.7768828671428585,Ga2CoS4
mp-7436,0.6038000000000001,-0.5896641276666669,4.3453572203753765,0.0,-20.24379786,-3.37396631,KCuTe
mp-18958,2.1656,-2.820214171249998,5.2887101666194285,0.0006914543750404789,-266.56700533,-8.3302189165625,UMoO6
mp-559288,2.9357,-2.6321484974587905,3.76627555324974,0.37654433884615207,-205.48979902,-7.9034538084615376,Gd(PO3)3
mp-770406,3.7485,-3.2525747243518515,7.542855212372085,0.0,-291.15862702,-8.087739639444441,Sm2WO6
mp-706291,5.573099999999998,-2.8557847856539498,2.5001406422527426,0.0,-409.40939034,-7.581655376666667,Ca2B8H2O15
mp-753727,2.5815,-1.7808023801136363,4.289135081124447,0.06688358136363526,-107.80155815,-4.900070825,Y3I7O
mp-42089,2.7186,-2.8485187926368174,3.5969157166915395,0.0065089935227300435,-333.66950584,-7.58339786,K4Gd2C3O9F4
mp-770702,2.3434,-2.477174358229167,2.865979652262727,0.1040987990625002,-200.39910127,-6.2624719146875,Li2AlFeO4
mp-541057,1.3403,-1.1429568480706518,5.300640525572233,0.0,-300.05235035,-6.5228771815217375,Rb4Re6S13
mp-560513,2.5309000000000004,-3.2146027077375012,4.065901437628638,0.0,-272.5040781,-8.515752440625,Gd3Si2Cl5O6
mp-771421,,,,,,,
mp-770544,1.9734000000000005,-2.33535347173611,3.188909075179497,0.3910509600694372,-80.08732678,-6.6739438983333335,LiAlCrO3
mp-767498,2.1919000000000004,-3.1296228405676323,3.9554970551188062,0.030740772826124637,-560.8045657,-8.127602401449275,Li10Ti11Nb6O42
mp-555463,6.4402,-4.373136062527647,6.304197611755884,0.0009207417156860133,-232.06514725,-6.825445507352941,RbTh3F13
mp-560934,3.6589,-2.4468003919179893,3.269445777663995,0.0,-658.27660225,-6.095153724537037,Na2Zn5(PO4)4
mp-558834,0.8801000000000005,-2.9697627832598035,4.4181390677830565,0.0,-577.25969293,-8.489113131323531,Eu2B5BrO9
mp-652866,,,,,,,
mp-775906,4.392,-3.9174328933333333,5.102954047174592,0.06282308849999829,-362.05048149,-9.05126203725,Y2O3
mp-768295,3.0154,-1.592188738583333,3.856570226090749,0.061604108250001836,-147.57586863,-3.68939671575,Ba2YI7
mp-628665,2.1035,-1.4660133368628572,3.6132580972810064,0.0,-104.21116162,-3.721827200714286,AlBiTeCl4
mp-781053,3.6182,-2.192145076889468,2.506079098832979,0.19534222211764352,-440.35068718,-6.4757453997058825,LiFeP3(HO5)2
mp-778416,,,,,,,
mp-756006,0.3704000000000001,-0.9432287699305556,3.698227509678041,0.021657228611110742,-24.68119723,-4.113532871666666,LiSbS
mp-18751,0.7349000000000001,-1.994865642318621,5.021779753006841,0.0,-94.33578923,-6.738270659285715,Mn2ZnO4
mp-3897,2.222,-1.4843091017757941,3.5523988321595037,0.0,-263.43025933,-5.488130402708332,SmPS4
mp-753781,0.4795999999999996,-3.7280579797500013,8.894546505863863,0.0,-51.62651455,-10.32530291,EuHfO3
mp-777530,,,,,,,
mp-568136,0.5946000000000002,-0.9510159061666664,3.8570478294695945,0.2774738543333326,-118.37249636,-3.9457498786666663,RbVBr3
mp-767347,,,,,,,
mp-570044,0.4775999999999998,-0.4637241180000004,4.854423263998339,0.0,-74.06384756,-3.7031923780000002,NbI4
mp-25545,,,,,,,
mp-762312,,,,,,,
mp-556517,1.9307,-1.5507165911999998,4.432615887103992,0.0,-88.71320535,-4.4356602674999985,K2PbO2
mp-778780,,,,,,,
mp-8054,3.5576,-2.6501590262500003,3.9657314120825897,0.0,-137.71059689,-6.885529844500001,NaSc(GeO3)2
mp-9245,0.94,-2.437493081534074,4.5659347633759655,0.07568418561728496,-81.1484765,-4.508248694444443,LiGaPdF6
mp-540416,0.9763,-2.277390936150804,2.99143787355308,0.11860336775000226,-283.20398274,-7.0800995685000006,MnP2O7
mp-8479,1.9781000000000004,-0.8311986180555562,5.951824323280149,0.0,-72.48549873,-4.0269721516666666,Tl4SiS4
mp-1598,0.4046000000000001,-0.3395264321428568,1.7517810606104536,0.0,-21.41612121,-2.67701515125,Na3P
mp-8985,5.2639999999999985,-3.2121615856716668,4.430172028991555,0.0,-413.85384548,-7.390247240714286,Ba2YC2(O2F)3
mp-780834,,,,,,,
mp-849359,,,,,,,
mp-780444,2.012,-2.7580206221286674,2.8222545146526508,0.022534183083331882,-175.36153557,-5.845384519,V6O5F19
mp-767549,,,,,,,
mp-763486,,,,,,,
mp-555151,2.0245,-1.1427312963839285,3.9985850221340327,0.0007716205357146678,-196.50156581,-3.508956532321428,ZnS
mp-29033,1.5683,-1.0223296561863495,2.133247784952665,0.0,-53.83263161,-2.990701756111111,P3BrCl14
mp-23023,3.7261,-3.2389638570833337,5.9004937761856056,0.0,-41.07098137,-6.845163561666666,LaBrO
mp-706489,5.1261,-2.4931753898014577,2.1810198594165278,0.010727753318246158,-877.42089509,-6.854850742890625,NaB2HO4
mp-765544,2.2346,-3.1322459203161404,3.2120451019876004,0.038768570921055456,-109.22114935,-5.748481544736843,Li4V3OF11
mp-579370,,,,,,,
mp-542222,5.3743,-1.9580512527389025,3.0332136767590145,0.010290527865852715,-473.43379824,-5.773582905365854,Tb2H16S3O20
mp-540822,0.39780000000000015,-1.2217881627709362,4.346721742978345,0.0,-101.20544848,-3.6144803028571433,Cs3Zr2I9
mp-770570,3.7745,-3.311988859166666,8.308089103822645,0.0025448880555565268,-292.41037078,-8.122510299444443,Dy2WO6
mp-775228,,,,,,,
mp-25155,,,,,,,
mp-1008786,0.4672000000000001,-0.8119102916666665,4.720268758538058,0.06541778249999998,-6.36401743,-3.182008715,MgTe
mp-18466,2.6013,-3.329466075917969,6.060402823329407,0.0,-248.29591614,-7.759247379375,Nd2SiSeO4
mp-28571,0.2976000000000001,-1.9281390007142856,4.77745456354293,0.0061823242857146354,-63.10723983,-4.507659987857143,La2Br5
mp-1019554,5.0076,-2.947168063776042,3.0689454123887296,0.0,-487.97530113,-7.62461408015625,BaNaB5O9
mp-650928,2.112,-2.9763143015603455,3.9126570555690163,0.002967192873585489,-964.08436309,-8.311072095603446,K3Nb7O19
mp-676014,4.4125000000000005,-3.366973614870689,3.131714246626308,0.003414020517242377,-424.66420987,-7.3217967218965505,NaAl11O17
mp-761397,,,,,,,
mp-29756,5.2118,-2.8138795506944434,2.6806593561500427,0.0011192529321117917,-270.28779719,-7.507994366388888,RbB3O5
mp-1347,0.2621000000000002,-1.4311002770408163,8.426089577080791,0.0,-107.82484027,-7.701774305,Th3P4
mp-4068,2.4516,-1.1759250315624996,2.439326058063993,0.0,-98.86590972,-4.119412905,Na2GeS3
mp-556797,3.8608,-2.89604090315,3.0547366365637516,0.0,-208.26973521,-6.942324507,K2Si3SnO9
mp-684022,1.3019999999999998,-0.9602346406249994,5.913697549680483,0.001998493035713089,-260.9636804,-4.660065721428572,LaTlGeSe4
mp-774141,,,,,,,
mp-583029,,,,,,,
mp-553970,2.0106,-1.0284859364901482,4.220610499142768,0.0,-121.96276562,-4.3558130578571435,CsGeBiS4
mp-654373,,,,,,,
mp-647579,3.2203,-0.911767004375,3.8279864876907617,0.0,-116.29783517,-2.422871566041666,ZnBr2
mp-38951,2.4348999999999994,-2.546588462619048,5.143199132184284,0.0,-84.92371374,-6.065979552857143,Mg(GaO2)2
mp-574138,0.8326000000000002,-0.6199732776436779,4.4339350871542775,0.0,-78.39622104,-3.26650921,Cs2Te3As
mp-864675,0.3433999999999999,-1.100710846952,10.300574144687145,0.0,-52.05456886,-5.205456886,Yb3N2
mp-868388,,,,,,,
mp-779071,0.4702,-2.7098577987762957,3.4017696341292267,0.11689903138888093,-174.29100657,-6.455222465555557,LiV2(OF)3
mp-28020,2.5146000000000006,-1.5639754863399995,2.4788921624577323,0.0,-44.48807865,-3.7073398875,AlCuCl4
mp-775271,2.1844999999999994,-2.3031075130952385,5.390990122027102,0.05634577571428422,-203.10788704,-7.2538531085714295,Li2Cr3WO8
mp-565801,,,,,,,
mp-29514,7.5425,-2.415368954908572,2.101439313655134,0.0,-115.30974715,-4.804572797916667,PHF4
mp-696225,4.8989,-2.062174331658312,2.077751893378567,0.01127823018939367,-498.64166071,-5.666382508068183,K3P2H7O10
mp-17904,3.3138,-3.7937826932812486,5.729321711435626,0.0,-276.03971260000003,-8.62624101875,Nd2TiO5
mp-780865,0.9765,-2.1760305658,4.474885369652445,0.06020677069444157,-93.27128923,-5.181738290555555,Co3OF5
mp-763352,,,,,,,
mp-554016,3.0569,-3.3785695134390723,2.6343630738376054,0.0,-491.93596271,-6.1491995338750005,K4Ti2PO4F9
mp-707788,4.9829,-2.1885016031569897,2.069916913286824,0.0070997750402828075,-785.55548729,-6.3351248975,NaCaB5(H5O7)2
mp-772399,,,,,,,
mp-3347,5.819099999999999,-3.1856279480952376,2.8921928264119603,0.0,-313.10564338,-7.454896270952381,Be2SiO4
mp-604440,,,,,,,
mp-780880,0.4884,-1.4466753197916666,3.8590593215881133,0.06416238000000085,-114.44973706,-4.768739044166667,Rb2CoO3
mp-19538,,,,,,,
mp-722832,7.065899999999999,-2.1072396575261427,2.3975042668609183,0.0,-205.04046111,-5.126011527749999,PH3NF5
mp-4510,0.3136999999999999,-0.9039791983333342,8.904165290151344,0.0,-17.22754582,-5.742515273333333,DyNiSb
mp-985587,4.8074,-3.225633273416667,1.6218073979352787,0.2100950563333344,-109.0689433,-7.271262886666666,Al2O3
mp-12903,0.9204999999999997,-0.9280885716666668,6.2274469482155625,0.0,-38.59511972,-4.824389965,YAgTe2
mp-619770,,,,,,,
mp-557689,4.8228,-3.2768952433680565,2.3493054896376706,0.0,-183.78359376,-7.65764974,CaAl2B2O7
mp-24141,3.6209,-1.5433995851992548,3.4793632703590074,0.0,-141.67003793,-5.059644211785715,CsHSeO4
mp-13252,3.5752000000000006,-2.6249804393402782,4.3069570069394905,0.0,-183.8585622,-7.660773424999999,SnB4O7
mp-675022,2.4163,-1.8659797415422068,3.9364506662672873,0.010792151000003523,-17.69944356,-3.539888712,CsPbCl3
mp-775523,2.2652,-2.3486039910357137,2.9852701070900904,0.21067329702777027,-262.71857134,-6.567964283499999,Li3Fe2(PO4)3
mp-755046,1.4855999999999998,-3.8922900628070174,5.739497879318602,0.06803466144737236,-168.56506291,-8.87184541631579,Ce3Y4O12
mp-570290,1.1483999999999996,-1.4012559938870353,4.661370975268455,0.029316221999999392,-22.29119229,-4.458238458,MnTlCl3
mp-764210,,,,,,,
mp-767432,0.4358999999999997,-2.9754444377348483,4.9152528178202965,0.0,-381.49962302,-6.936356782181817,Sr16V8O31
mp-540433,3.8405,-2.2959949602225675,3.4084665562501257,0.25673278048913506,-154.92708092,-6.73596004,Li2Fe3(P2O7)2
mp-27199,0.6295,-0.1555247828645836,6.970285477649129,0.0,-70.98635125,-2.9577646354166665,AuSeBr
mp-530399,5.251,-3.3622944669047614,3.5173108892859144,0.0,-406.69699316,-7.262446306428571,LiAl5O8
mp-771765,,,,,,,
mp-764651,1.6528999999999998,-2.129723045984848,3.2631522815132383,0.2829963675682068,-302.56497814,-6.876476775909091,LiFe2(BO3)2
mp-505077,4.5248,-1.432039864588666,1.4066059388182446,0.01330556666666638,-292.71511308,-4.8785852180000004,NaH9O5
mp-559770,3.6011999999999995,-3.33701901325,5.989717210593642,0.0018298584999900669,-453.58010839,-7.559668473166669,Nd4Ga2O9
mp-769462,1.2720000000000002,-2.670911607993826,4.615820062348321,0.07285850143519212,-433.15617919999994,-8.021410725925925,Li2Nb6NiO18
mp-662789,2.0709999999999997,-1.9139895384327503,3.5570458117840666,0.08675900850000051,-337.96912354,-4.22461404425,Te3As2(SF4)3
mp-759382,2.2741,-3.1809195949074063,4.149877698084036,0.0531107370555457,-390.20239166,-8.67116425911111,Li2Ti7Nb6O30
mp-772691,,,,,,,
mp-705344,,,,,,,
mp-630773,0.2582,-0.9350525389285709,4.197485751087469,0.08372987535714316,-54.24660734,-3.8747576671428567,CdInGaS4
mp-7523,1.6182999999999996,-1.973571402952,9.257702022118695,0.0,-43.74381882,-8.748763764,Th2TeN2
mp-35035,5.29,-0.38312556846,1.6116884359167405,0.13888604166666774,-19.43901766,-6.479672553333334,KCN
mp-14333,4.0686,-3.412274416666667,6.2192343320214025,0.0,-106.11932297,-8.843276914166667,TaAlO4
mp-10785,2.0456,-1.6988117255468749,5.788440940195818,0.0,-19.28855445,-4.8221386125,RbLuSe2
mp-27629,2.3747,-1.8045342945095075,3.1796593715926345,0.0,-47.4923452,-3.392310371428572,Cs3Sb2Cl9
mp-753774,3.9742,-3.173287254708333,6.2937959302764686,0.0,-26.769937300000002,-6.692484325,KTmO2
mp-868380,,,,,,,
mp-20493,1.7646000000000002,-1.1817850844047617,3.924913510942958,0.0042680432417521175,-58.52943687,-4.180674062142857,Mg(InS2)2
mp-12183,5.3412,-2.852671766761905,1.8194594766285783,0.0,-867.28064512,-7.743577188571429,KB5O8
mp-686001,1.6448000000000005,-3.794065983522728,6.6382190846792115,0.07708902159091657,-185.71369766,-8.441531711818183,Ce2Nd2O7
mp-767137,0.5070000000000006,-0.7255782331781918,4.230657209505491,0.012361179255317543,-203.79266487,-4.336014146170212,Li3Sb17S27
mp-565779,,,,,,,
mp-689929,1.3533,-2.5074896355952383,2.7635374782800795,0.08898669001388981,-252.57315037,-7.015920843611112,LiV(PO4)2
mp-626287,3.092,-1.436512306003209,1.7778509997275795,0.061978627777815376,-269.53550957,-4.99139832537037,Sr(H8O5)2
mp-763006,,,,,,,
mp-13694,2.3982,-2.592448606875,5.485236231342458,0.0,-27.74123118,-6.935307795,PrCuO2
mp-27227,0.7277999999999998,-0.8151950773611117,6.820705326865059,0.0,-47.57802285,-3.9648352375,LiAg3O2
mp-19384,2.2427,-1.5715584052777782,5.501470375401047,0.0,-105.10171276,-5.838984042222222,Ni(AsO3)2
mp-766411,2.0412,-0.5670882517422854,1.8325018662419343,0.03511585415357832,-387.57376107,-5.5367680152857135,H16PdC4S4(N4Cl)2
mp-2552,1.1504999999999992,-1.333019040937501,5.995793451476153,0.02012907124999952,-42.424746999999996,-5.303093375,TeO3
mp-629701,,,,,,,
mp-744533,0.0,-2.082135468898871,3.00174089858464,0.10438962490742032,-337.78326566,-6.25524566037037,SrV2P2(H4O7)2
mp-715436,,,,,,,
mp-763306,,,,,,,
mp-568598,0.29800000000000004,-0.22701595571428534,5.690421970726089,0.0017567814285714967,-16.18719031,-2.3124557585714283,Cu2HgI4
mp-672326,0.24319999999999986,-0.1404215968750009,7.998560765352122,0.0003011812499993382,-72.36450675,-4.522781671875,In3Ru
mp-31259,2.8849,-1.017769216442307,5.7563863015316405,0.0,-239.60173043,-4.6077255851923065,Bi(IO3)3
mp-607031,,,,,,,
mp-565394,,,,,,,
mp-677288,1.719,-1.8414716490667429,1.8664985162251184,0.05813616380682074,-232.96559083,-5.294672518863637,Mg5AlH21O17
mp-560016,1.9772,-2.9162459977976183,3.545305987781296,0.0,-383.55357868,-7.9906995558333325,NaNb2PO8
mp-778878,3.3976,-2.171520097864583,3.8777593183121413,0.08632171468749927,-158.65527773,-4.9579774290625,BaLi4O3
mp-768605,3.2861,-3.90394124234375,6.9683683573534125,0.0,-278.07891145,-8.6899659828125,Ho2TiO5
mp-31110,3.6261,-3.51258984175,7.015068552152915,0.0,-155.56205716,-7.778102858,Sm3GaO6
mp-744439,1.7108,-1.6228143489479998,2.9774486057213108,0.017673600874999806,-923.6808419,-5.773005261875,MoH4O5