id,band_gap,formation_energy_per_atom,density,e_above_hull,energy,energy_per_atom,pretty_formula
mp-754304,2.7805,-1.497719366,4.354579796,0.096434684,-105.8852383,-3.781615654,BaYI5
mp-26658,0,-2.287039265,4.384367116,0.082352006,-134.3462652,-6.717313262,BiP2O7
mp-720254,5.8773,-1.952062741,1.900352584,0,-475.5137897,-5.660878448,Li2H4(SO4)3
mp-15108,2.0724,-2.039760157,4.464146131,0,-376.991431,-5.890491109,RbSnAsO5
mp-680144,2.3419,-0.590478057,5.069865866,0.001658941,-108.7614531,-1.908095669,CdI2
mp-29825,4.3281,-2.923723862,2.475138983,0,-363.1013621,-6.724099298,K2Si2O5
mp-863664,0,-0.467559585,7.535121533,0,-20.0852016,-5.0213004,Pm2CuGe
mp-530149,1.9742,-3.456016315,2.608962967,0.005916793,-419.877646,-7.116570271,Ca12Al14O33
mp-12753,0,-0.39016896,6.365092054,0.014945901,-18.61184965,-9.305924825,GdAl
mp-560163,4.6781,-3.650791485,2.895508723,0,-424.1907696,-7.06984616,Ca4Si2O7F2
mp-16848,2.2893,-0.758142358,5.470036314,0,-129.7338195,-4.054181858,Tl3PS4
mp-776795,3.8401,-1.990898693,3.839385329,0.061543447,-121.8933702,-4.353334651,BaYBr5
mp-4247,0,-0.297194582,4.641406324,0,-15.26031663,-2.543386105,NaZnSb
mp-769159,0,-1.915233011,2.894830474,0.077802508,-232.7237546,-5.818093866,LiCuPH2O5
mp-6922,5.5311,-3.276632939,2.371128183,0.012518077,-71.12413909,-7.902682121,SiO2
mp-540395,0,-2.26183157,4.43982222,0.090570963,-251.9175099,-6.629408156,Sn4(PO4)3
mp-570902,0.203,-1.603541386,4.595187259,0,-81.51845921,-4.795203483,Pr6RuBr10
mp-554906,2.8035,-2.147291807,6.03397576,0.032406955,-234.7404086,-5.868510215,Zn2BiPO6
mp-644875,0.0466,-0.540142775,5.722279872,0,-189.3176041,-3.944116752,Ba2(InAs)5
mp-973869,0,-2.09207189,6.803893803,0.411439875,-28.98093091,-5.796186182,LaCdO3
mp-560544,1.6195,-2.196970722,6.091078492,0,-220.5371681,-5.250884954,Ba3Zn5In2O11
mp-27636,0.2884,-0.916398235,4.333490561,0,-23.16211711,-2.573568568,Cs2SnI6
mp-27264,0.2028,-3.465889168,2.950003813,0,-142.8522577,-5.952177403,NaTiF4
mp-30850,0,-0.718051299,19.90951307,0.002263857,-65.79629807,-8.224537259,TaPt3
mp-768414,0,-1.436017456,2.020565163,0.047889961,-173.9717087,-4.832547465,Li4VS4
mp-6732,0,-2.959557602,7.691007439,0,-150.5508242,-7.527541209,La2MgIrO6
mp-774848,3.9706,-1.318521115,1.935152576,0,-379.000355,-4.986846776,H10SeO8
mp-28772,1.6015,-0.997769048,2.254145335,0.012003254,-59.70376615,-2.713807552,SbSCl9
mp-27505,0,0.001469599,8.281698258,0.001686526,-66.78187901,-6.678187901,Fe3Sn2
mp-779309,1.1802,-2.967299167,3.269513041,0.001050888,-205.0596096,-6.4081128,V4(OF3)3
mp-23717,5.3898,-2.672911313,2.860943073,0.002079805,-122.4369268,-6.444048776,Ca2MgP2(H2O5)2
mp-981550,0,-2.354494603,5.676744295,0.231988015,-29.94642933,-5.989285866,RbTmO3
mp-776749,0,-2.218252669,4.049680003,0.078127981,-189.947425,-6.783836606,Li2V3CuO8
mp-542496,0,-0.324715412,6.784747006,0,-72.69347261,-3.160585766,Ca6Ag16N
mp-12885,3.4259,-2.787227165,4.224100753,0,-80.70712478,-6.725593732,BaAl2Sb2O7
mp-21165,0,-0.326509502,7.474292718,0.000104309,-74.56528293,-4.660330183,PdSe
mp-11490,0,-0.265621335,4.774814507,0.04351545,-10.16065491,-2.540163728,Li2ZnSn
mp-32742,0,-1.632298162,11.41328769,0.004017213,-446.430369,-10.88854558,U16N25
mp-530217,5.4677,-4.125517519,4.222556123,0.007283031,-520.4773288,-6.848385906,PrZr3F15
mp-26312,0,-2.481608275,2.784885166,0.046059817,-187.1724344,-6.239081148,Li4Cu(PO4)2
mp-553912,3.7453,-2.526457456,3.495124267,0,-257.1403744,-7.142788176,NaZr2(AsO4)3
mp-774386,2.84,-2.327865909,2.730775211,0.032178533,-392.8318707,-6.772963288,Li2Cr3P4(HO4)4
mp-22720,1.9312,-3.163066353,4.672929292,,-121.974885,-7.623430309,RbSr2Nb3O10
mp-9248,1.2363,-0.772861188,3.910783437,0.010412952,-57.30864888,-4.77572074,Cu2SiS3
mp-752686,3.4282,-3.815870705,7.794805682,0,-195.1279771,-8.869453505,Sm3TaO7
mp-721426,5.114,-1.713828101,1.823723772,0.026276974,-321.9690607,-5.366151011,NaPH7O6
mp-7429,0,-0.446009623,5.250385294,0,-15.032689,-3.0065378,Ca(ZnSb)2
mp-2271,0,-0.362068938,12.55168615,0,-29.07653228,-4.846088713,NaPt2
mp-12872,0,-0.214887479,8.43895219,0,-26.94090957,-3.848701367,ErIn5Co
mp-510084,0,-0.814672124,6.071121083,0,-247.5232936,-6.875647045,Ho2Ti3Si4
mp-644332,2.6901,-3.040037809,3.232042057,0.001591792,-112.2022915,-5.610114576,KMnF3
mp-20879,0,-0.346276065,8.561136281,0.098752167,-14.09257074,-2.34876179,CaHgPb
mp-975606,0,2.348414865,5.97095526,2.393301124,-17.21561544,-4.30390386,InN3
mp-570700,0.5162,-0.964724448,7.518089756,0,-85.18202832,-5.678801888,Hf3Tl2(CuSe4)2
mp-7000,5.7211,-3.278690145,2.487349848,0.010460871,-71.14265395,-7.904739328,SiO2
mp-696275,2.5506,-1.045862533,2.214218152,0.006638119,-71.13500404,-4.184412002,SnH8(NCl3)2
mp-5226,3.5912,-1.825023742,2.8643478,8.04E-05,-141.5639801,-5.055856431,K2SeO4
mp-754515,0,-0.532724075,4.431649942,0,-19.4996941,-3.249949017,BaMgGe
mp-569754,1.4092,-1.418174558,5.032315415,0.005672549,-413.9274206,-4.499211093,Ba7Sn3Se13
mp-2349,0,-0.299732006,7.346117257,0,-20.82103048,-2.60262881,YCd3
mp-752410,2.9627,-2.836943555,4.769699162,0.037807641,-180.9447967,-6.462314168,Ba2GeO4
mp-504601,1.7129,-1.541514225,4.832986466,0,-153.7920675,-3.844801689,Cs2ZnO2
mp-19765,0.5187,-0.294828637,5.971592476,0,-20.4408681,-2.920124014,In2HgTe4
mp-773202,0,-2.065098026,4.688496394,0.050986677,-155.4658862,-6.477745257,Li5Mn5(SbO6)2
mp-569424,0,-0.380960855,6.745891533,0,-108.3792675,-9.031605626,Cr2B
mp-14424,3.8928,-1.849146785,2.677471725,0,-287.8556909,-5.140280194,Sr(AlS2)2
mp-556518,1.9067,-1.232466516,2.291945717,0,-453.3701818,-5.965397129,K2Pd(NO3)4
mp-560328,1.2258,-0.55686412,4.587131124,0,-288.8447341,-3.800588607,Ag15P4S16Cl3
mp-3375,0,-0.886514781,8.693298305,0,-144.1360704,-6.551639562,Nd4Ge3Rh4
mp-555246,0,-2.678928861,7.056907713,0,-214.1067154,-7.136890512,Ba3LuRu2O9
mp-975292,0,-2.004105751,5.806457891,0.216384008,-31.04764986,-6.209529972,RbMoO3
mp-13534,0,-0.390740758,7.266985741,0,-39.44969133,-4.383299037,LaZnNi
mp-971875,0,-0.112481922,13.05002866,0.037700672,-14.54902872,-7.27451436,UGa
mp-771907,0.0087,-2.085180947,4.766305858,0.054346989,-183.0597881,-6.537849574,Li4Mn5Sn3O16
mp-774557,3.013,-3.059628624,7.765817447,0,-260.6895451,-7.241376253,Er2TeO6
mp-5061,2.1688,-2.325821929,4.883970352,0,-75.25207475,-6.271006229,Li5ReO6
mp-643356,4.1758,-1.769550169,3.75103208,0.005083455,-105.0610898,-4.377545408,SrH2Br2O
mp-555269,1.499,-0.423267854,5.594826068,0,-103.8779901,-3.709928218,Ag3SbS3
mp-17388,0,-0.372912906,8.957975767,0.001894248,-54.45003511,-3.889288222,Yb3Cu6Sn5
mp-862361,0,-0.502966881,8.585716387,0,-31.67188904,-7.91797226,Sc2NiOs
mp-28671,1.1092,-0.938016382,3.891584182,0,-60.96311435,-3.810194647,ZrTe2Br5
mp-5105,0,-0.896880422,7.320084501,0,-38.79366621,-7.758733242,La(SiRu)2
mp-28256,0.7208,-0.411587568,4.391786237,0,-108.1827373,-4.917397149,V2Se9
mp-707929,3.351,-1.768251317,1.902091824,0.091208771,-960.527008,-7.062698588,LiBH2C4O9
mp-569766,0.7224,-0.084411866,4.922315702,0,-19.32119241,-2.415149051,TeI
mp-757053,0.2793,-2.583074861,3.083723129,0.102961669,-261.745238,-7.270701056,LiNb(PO3)4
mp-772215,0,-2.405545605,6.189574457,0,-341.5652088,-8.988558127,LiNb8O10
mp-772765,4.2632,-2.763033832,2.877757536,0.037251165,-168.7618607,-7.031744196,K2PrPCO7
mp-8016,0.896,-0.627276996,4.65135476,0,-34.67100451,-4.333875564,AlCuSe2
mp-17217,0.6374,-0.254965409,6.892594473,0,-91.74238788,-3.276513853,Tl3GeTe3
mp-989528,0.1989,-0.14505422,3.280130783,0.076875893,-29.42198862,-2.942198862,Rb2AlInH6
mp-17989,2.7739,-1.332368399,2.02088718,0,-133.0296746,-4.157177332,K3PS4
mp-560216,4.1237,-2.61281641,3.454700516,0,-270.5048588,-6.76262147,Cs2GeP4O13
mp-777731,3.8412,-2.110806142,3.417562303,0.061220191,-355.5516117,-4.040359224,Ba6YBr15
mp-4326,2.385,-2.217253738,4.363767678,0,-21.47559754,-5.368899385,KErS2
mp-867961,1.3265,-1.648871474,4.998249235,0.058056067,-227.4113929,-5.546619339,Sb16Cl4O21
mp-558566,2.5862,-3.512209128,5.782773732,0,-341.0514529,-7.414162019,Ba5Er2ZrAl2O13
mp-743878,2.07,-1.563439137,4.815584816,0,-120.1090265,-5.459501206,Fe2Te4H3ClO12
mp-11494,0,-0.175199072,11.44098298,0,-16.3310809,-4.082770225,LuPb3
mp-569779,0.2795,-1.043291465,6.997261364,0,-18.76789962,-6.25596654,ScSbPd
mp-24292,2.2616,-0.685729852,4.216492851,0,-38.24411448,-4.249346053,Sr2H6Ru
mp-23443,1.3888,-0.529960065,5.844785509,0.015745602,-74.93270591,-3.746635296,MnTlI3
mp-8306,0,-0.715170447,5.196240542,0,-86.19444309,-6.156745935,Ba3FeN3
mp-752615,0,-1.531199039,3.643059917,0.028721603,-65.19384606,-5.014911235,Li4(CuO2)3
mp-1016108,2.3348,-1.035050007,4.766285537,0,-116.8603943,-7.303774645,TiZnN2
mp-1129,0,-1.051199642,11.65986552,0,-17.29876323,-8.649381615,ScIr
mp-643458,5.9622,-2.072135872,2.049220541,0,-160.0909589,-5.717534245,LiHSO4
mp-1869,0,-0.643377124,10.34733798,0,-61.26833569,-5.105694641,GaPd2
mp-27576,4.127,-3.325504487,3.857935312,0,-390.143593,-8.127991521,Sc2GeO5
mp-756393,0,-3.419831808,7.663927247,0.091571514,-193.1283139,-8.778559724,Er2Nb2O7
mp-23349,3.8384,-2.591515029,4.742219651,0.004262853,-75.20746615,-7.520746615,Bi(BO2)3
mp-23944,5.2973,-1.293502007,2.759610067,0.014285083,-192.4626457,-4.811566142,BaH6Cl2O11
mp-770607,2.3291,-2.757660101,2.474364524,0.033541825,-305.3747396,-6.940334991,Li3VSi4(HO6)2
mp-765860,1.2323,-1.500082237,5.304951878,0.244336271,-88.19178501,-6.299413215,Fe2CoO4
mp-675416,3.0111,-3.224324011,4.797571154,0.085980371,-453.4603547,-7.557672578,Sr4Nb2O9
mp-10388,0,-0.737687271,8.450327324,0.020340472,-102.5073756,-7.885182736,Nb5(PPd)4
mp-19153,1.0159,-2.950944705,7.829580631,0,-172.1076679,-7.823075814,Lu2Mn2O7
mp-685991,1.2765,-0.592334961,1.67019841,0,-73.05115622,-4.058397568,Li5SiP3
mp-29152,0,-0.933110434,6.728850166,0,-66.69454869,-8.336818586,Zr2CoP
mp-21526,0.3735,-0.239250361,4.934516448,0,-84.64491159,-2.645153487,KPb
mp-4104,5.9066,-3.531995486,5.939538835,0,-96.17097963,-8.014248303,HoPO4
mp-975738,0,-0.425123142,11.72466768,0,-85.3994644,-8.53994644,Pr(BOs)2
mp-770687,0,-1.988208728,3.146815852,0.082245575,-216.7725046,-6.774140769,LiCr2O5
mp-625850,3.1296,-1.237146514,1.463964508,0.030235481,-293.2366846,-5.236369368,H7NO6
mp-753751,0.6331,-2.108071629,4.968739645,0.082945162,-32.02006601,-4.002508251,LiAgF2
mp-27144,3.4619,-2.278141618,5.445596116,0,-254.7735775,-6.369339436,TlPO3
mp-23396,1.6713,-1.084213909,2.582513265,0,-111.9897509,-5.599487545,MoNCl3
mp-774736,1.6984,-0.960468397,3.352952658,0.00500488,-49.41235459,-4.117696216,LiCuS
mp-561218,0,-0.644709954,5.099749013,0,-265.3149549,-4.14554617,KP2Au5S8
mp-625509,4.4183,-1.022298583,2.333520441,0.000967384,-20.68613287,-4.137226574,H3BrO
mp-9007,1.2845,-0.400146999,2.825260621,0,-94.06165931,-4.275529969,Na6P4W
mp-18584,2.5658,-3.365276745,7.320723639,0.008046798,-247.5952595,-7.737351858,Ho2SiSeO4
mp-5025,0,-1.507391661,6.013909025,0,-71.62900536,-8.95362567,Zr2CS
mp-29912,0,-0.263699941,6.797120021,0,-189.2906774,-5.915333669,Sb2MoSe
mp-14500,0.1404,-0.681479302,9.770468263,0,-122.5893835,-5.572244705,Sr(As3Pt2)2
mp-28144,2.7077,-2.299010985,7.571690656,0.012189276,-105.4919417,-6.593246359,SiBi2O5
mp-2795,0,-0.807515404,6.502965108,0,-19.38802635,-9.694013175,ZrC
mp-776432,0.2335,-2.159649021,2.946375873,0.039516235,-161.959359,-6.229206116,Na2LiCuPCO7
mp-570231,0.7105,-1.248427846,4.529577051,0.032818175,-12.93930798,-2.587861596,CsCdBr3
mp-12774,0,-1.015773483,14.86183315,0,-36.61055545,-9.152638863,ThIr
mp-997033,0.7091,-0.076384963,5.771751789,0.262093204,-29.54725329,-3.693406661,AuBrO2
mp-1019316,0,-0.232612061,10.17964131,0,-58.73452418,-9.789087363,Tc2N
mp-28356,0,-1.651181533,7.46600174,0,-311.3424301,-7.412915002,U6Cu2S13
mp-556869,2.5763,-1.62335467,5.225534064,0.014819677,-291.3772296,-5.603408261,Sb5IO7
mp-554657,4.09,-2.674974574,3.579932071,0,-457.9384748,-7.386104431,Na2Tl2B10O17
mp-1547,0,-0.690240644,5.49999522,0.015693436,-63.73893782,-5.311578152,NiS
mp-11456,0,-1.096668103,19.26316721,0,-130.0455477,-8.127846731,HfPt3
mp-558268,3.3861,-2.82242247,5.34715371,0,-528.2136221,-6.771969514,Ca4Si6Pb6Cl2O21
mp-16267,1.0877,-2.048366902,5.204361276,0,-76.64372923,-5.474552088,Dy2CdS4
mp-19743,0,-0.534035303,7.178633049,0,-29.92483753,-5.984967506,LaFeGe3
mp-13364,0,-0.274655941,4.651338121,0.023795358,-21.48766507,-1.790638756,CaZn2
mp-768156,0.0677,-0.98116354,2.742935962,0.102146225,-157.328548,-3.575648818,Li7(SbS)2
mp-685036,3.2994,-3.3350951,3.573288756,0.111112037,-294.8074195,-7.370185487,Al2O3
mp-1119,0,-1.109939974,6.810163066,0,-66.02369323,-4.715978088,Nd2Te5
mp-22215,0,-2.250672589,5.883749156,0.001867202,-74.9810105,-6.248417542,Ba2Y(CuO2)3
mp-1013552,0.0581,-0.643909617,2.958870751,0.403210504,-19.09129686,-3.818259372,Sr3P2
mp-767433,1.7404,-3.062190451,3.613803761,0.039596779,-166.7737897,-6.176807027,LiV2OF5
mp-771906,1.5628,-2.374165836,3.079653582,0.068379525,-194.7961211,-6.087378784,Li2AlCoO4
mp-764856,0.2786,-2.664476465,3.141160806,0.05551194,-281.5896403,-7.039741007,Li6MnV3(PO4)6
mp-675801,2.1642,-1.879256938,2.04652491,0,-67.56126972,-4.222579358,KNbCl6
mp-755219,0.8862,-2.698623653,7.79241244,0.104309384,-27.94681122,-6.986702805,ScTlO2
mp-31081,0,-0.332152267,4.115221763,0,-77.27233901,-5.944026078,Sc(MnAl2)4
mp-7829,0,-0.550684819,7.009998471,0,-79.04928016,-8.783253351,MnNbSi
mp-754263,0,-3.142179455,8.547104095,0.027808567,-104.3126656,-7.450904684,Ho2CuO4
mp-770735,2.2721,-1.680873336,3.933134239,0.035845032,-143.5497259,-5.981238578,ZnCrO4
mp-17708,3.0359,-2.00026002,4.459342594,0,-176.3286161,-6.297450575,Ge3Sb2O9
mp-770274,0,-0.164239799,3.883679902,0.07622753,-112.9545315,-5.647726573,NiP4
mp-777480,1.4443,-3.076982862,3.680926563,0.033337454,-223.7496161,-7.991057719,Li2Ti3MnO8
mp-777909,0,-2.578322366,2.925323399,0.032257482,-269.9956866,-7.105149648,Li2Cr2(PO4)3
mp-7361,0,-0.425853298,6.519287934,0,-27.27880094,-5.455760188,Sr(CoGe)2
mp-850944,0.9565,-1.746401234,3.069717977,0.087131842,-240.1117118,-5.108759826,Li21(Co4O9)2
mp-645208,0,-2.197400153,5.062713725,0.006682495,-218.9950909,-6.08319697,Sr2Co2O5
mp-9868,0.4606,-0.686058068,4.507433499,0.001471394,-48.90679322,-4.075566102,KCu3S2
mp-10288,0.4804,-1.470188345,6.335790131,0,-86.05388339,-5.378367712,LaCuTeS
mp-763610,2.5476,-2.774539158,3.572982947,0.015308205,-205.1377142,-7.326346935,LiCrSiO4
mp-18585,1.1648,-0.378681739,4.492912572,0,-80.30117649,-3.345882354,RbAgSe4
mp-26389,0,-2.799093305,3.216248966,0.04741109,-557.8571833,-7.748016434,LiNb2(PO4)3
mp-20760,0,-0.359964331,6.604147482,0.011614125,-27.36986879,-4.561644798,La2In
mp-676519,0,-3.228282782,5.31858977,0.011847698,-279.412628,-8.218018469,Sr6Nb7O21
mp-1926,0,-0.103871018,9.69196715,0,-43.61867316,-7.26977886,HoFe2
mp-31379,0,-0.642261405,7.353276332,0,-46.29834871,-7.716391452,Zr2Sb
mp-865300,0,-0.662506264,12.6673172,0.017500181,-23.29888206,-5.824720515,Tm2AgIr
mp-558849,1.9161,-1.012722023,5.637427992,0.011740257,-72.23710982,-3.611855491,CdBiS2Cl
mp-2680,0,-0.563901735,4.717520604,0,-48.94506324,-6.992151891,LaB6
mp-978285,0,0.179736975,2.695835192,0.185645965,-13.25330624,-3.31332656,Mg3Mn
mp-3349,1.8405,-3.514399385,4.905954037,0,-92.60411374,-7.717009478,Sr3Ti2O7
mp-772431,0.5598,-1.427146499,1.961541324,0.043094307,-243.6781264,-5.801860151,CoH8(CO5)2
mp-13380,0,-0.746662119,9.756394917,0,-61.75125155,-5.145937629,HoZnRh
mp-40451,2.0437,-3.14349164,6.283362978,0,-391.9284061,-8.907463776,NaGd3Ti2(SbO7)2
mp-753056,4.5447,-3.4916386,6.269567509,0.089607221,-82.7880539,-8.27880539,HoBO3
mp-684674,0,-1.06221974,3.730108915,0.011582497,-269.1231726,-6.90059417,Cr5S8
mp-29164,0.3411,-2.280314092,7.136092727,0,-118.6524573,-5.932622866,SrBiO3
mp-23487,2.7348,-1.372992143,3.80891799,0.0133898,-88.6943994,-4.43471997,KIO3
mp-556418,3.9568,-1.925101312,1.804393841,0,-65.80522842,-4.700373459,AlSCl3O2
mp-676330,0.1197,-1.855486818,4.452049388,0,-245.4485194,-5.844012367,Nb12Br17F13
mp-12662,0,-0.007929543,18.27033797,0,-353.1942449,-12.17911189,Re24Mo5
mp-695951,2.4369,-2.081678641,3.496980419,0.018771717,-220.0170872,-6.111585756,LiAg2P3(HO5)2
mp-625913,2.1805,-1.39907089,4.837713005,0.033537214,-208.4540145,-5.211350363,TeHO3
mp-674531,0.5321,-0.533121363,2.128998352,0.010178678,-70.38016954,-3.910009419,Li5GeP3
mp-643245,1.5738,-0.161210002,1.72759686,0.01931973,-60.2796511,-3.348869506,K3MnH5
mp-770575,2.6156,-2.713741605,2.714357211,0.053746681,-439.8209168,-6.872201825,LiCrPO4F
mp-971924,0,-0.334004311,7.987367102,0,-18.06619244,-4.51654811,DyYAg2
mp-555332,0.4716,-2.870022103,4.057518237,0.025637796,-141.8664649,-7.093323243,BaCu(SiO3)2
mp-573908,0,-0.431118997,3.312277194,0.006032804,-85.90216547,-3.73487676,Sr11(MgSi5)2
mp-31084,0,-0.722253147,8.38770484,0,-336.3475786,-7.00724122,ZrGe2Rh
mp-973256,0,-0.309084097,8.427829679,0.007501229,-12.50116122,-3.125290305,LaMgTl2
mp-735475,3.23,-1.923289067,1.903652788,0.005825356,-459.188442,-6.29025263,CoB12H28(NO15)2
mp-5659,0,-0.820974038,4.475125191,0,-104.9869812,-8.748915103,Ti3SiC2
mp-974959,0,0.170320655,1.569720018,0.170320655,-4.27628744,-1.06907186,Rb3Li
mp-768788,3.9434,-2.408069868,4.311781728,0.073658509,-308.9381825,-6.436212136,Li3Bi(BO3)2
mp-22079,0,-0.491021446,9.196488492,0.003174368,-51.90729023,-6.488411279,AsRh
mp-37947,2.7313,-1.789142618,2.317636466,0.115971551,-64.61719802,-5.874290729,Na4C2O5
mp-558689,0,-2.687552772,7.284061857,0.000138683,-139.4614291,-6.973071453,Ba2PrIrO6
mp-571452,1.3151,-0.521409407,3.300914928,0.001948481,-117.5740436,-3.919134787,KPSe3
mp-770392,3.152,-2.041191286,4.551880556,0.073882106,-117.1383924,-4.183514014,BaLaBr5
mp-961678,0.8689,-0.792086075,6.845132469,0.018054003,-18.96120475,-6.320401583,ScCoTe
mp-14629,0.0434,-3.002156042,4.599245243,0,-181.3644085,-7.556850353,Li2EuSiO4
mp-775900,1.2606,-2.38979581,2.981988832,0.085715075,-389.8388935,-6.497314891,NaLiCu(PO3)3
mp-1575,2.0461,0.016279256,2.169018735,0.016279256,-40.80880838,-6.801468063,CaC2
mp-11873,0,-0.355666181,11.28962856,0,-35.39516393,-5.05645199,TlAsPd5
mp-18859,1.0282,-2.80570175,4.038398316,0,-284.6972951,-6.778507027,Sr5Cr3O12F
mp-6528,6.69,-3.428755144,4.129568211,0,-99.37627412,-4.968813706,Cs2NaAlF6
mp-34322,2.7262,-3.794075668,6.727702927,0.018092064,-192.6497624,-8.756807381,Dy2Ti2O7
mp-999047,0,-0.365178865,5.425819075,0.228434048,-31.83953659,-7.959884148,Ti2MnSi
mp-554483,3.4222,-1.493869451,2.890750435,0.014137383,-179.6280913,-3.904958507,KCd3H8Cl7O4
mp-769456,1.0854,-2.302550449,2.854138842,0.016892357,-328.2995583,-6.565991165,Na5Fe2P2(CO7)2
mp-29246,1.1184,-0.456909491,4.187901734,0.009067961,-44.10831935,-3.675693279,Cd2P3Cl
mp-11404,0,-0.577907075,6.476532557,0,-17.94032851,-4.485082128,PrGa
mp-3197,0,-0.87319204,8.002252313,0.008798307,-48.51985782,-5.391095313,TbAlPd
mp-770779,1.6264,-2.43982203,4.782309258,0.003636027,-159.5970597,-7.979852985,VCrO3
mp-542727,0,-0.166734444,8.309917172,0.017834182,-213.4897473,-7.361715424,Cr2(Co7B2)3
mp-555359,2.7804,-3.041446368,3.259120431,0.000183234,-56.11523134,-5.611523134,KMnF3
mp-4997,0,-1.357677218,6.003316502,0,-41.41543671,-6.902572785,ZrGeS
mp-775336,0.8046,-2.027048236,4.869670039,0.058704469,-174.8963166,-6.246297022,Li4V2Co3Sb3O16
mp-28988,1.5438,-0.715839259,4.688672222,0.0093735,-181.5102781,-2.836098095,In7Br9
mp-648414,1.1097,-0.980585575,2.51123825,0,-567.6800229,-5.458461758,V2PS10
mp-769232,3.7761,-2.105452488,3.915900654,0,-424.7562425,-6.246415331,Dy2(SeO4)3
mp-569564,0,-0.341514112,8.318030704,0,-104.7660673,-7.483290518,Th2Al2C3
mp-561303,2.1344,-0.818267374,2.701794676,0.007349389,-90.5090428,-4.52545214,NaSb(PS3)2
mp-753055,1.6307,-1.98570079,8.960438769,0.063453712,-91.94193793,-6.129462529,TbBi5O9
mp-680183,2.1236,-2.013928446,3.602362233,0.046748092,-696.7007698,-4.147028392,Te5As2Br4O5F26
mp-759069,6.0788,-1.931122135,1.502911621,0,-255.5690226,-6.084976728,B(HO)3
mp-3854,0,-0.628261956,5.392622612,0,-38.77782678,-7.755565356,Y(MnSi)2
mp-5305,0,-0.400014783,4.756054801,0,-53.6463876,-4.4705323,CuAsS
mp-760447,0,-1.164882486,9.504834162,0.083169614,-70.18440565,-5.013171832,Tl2(PbO3)3
mp-1207,0,0.077263269,8.241090396,0.077263269,-42.90593501,-7.150989168,NdFe2