id,band_gap,formation_energy_per_atom,density,e_above_hull,energy,energy_per_atom,pretty_formula
mp-2062,0,-0.668216952,4.96488724,0,-35.56375344,-5.92729224,LaSi2
mp-651005,0,-0.777661183,6.614685925,0.032643162,-275.1877376,-4.2998084,In3Bi7(Pb2S9)2
mp-7914,3.99,-3.208728532,3.448480291,0,-28.95868309,-7.239670773,NaScO2
mp-754668,3.2482,-3.094090588,8.980505709,0.037464107,-166.3991962,-10.39994976,Hf3N2O3
mp-34139,0.6789,-2.192271665,4.686892042,0.010180627,-109.664129,-7.833152071,Mn2CrO4
mp-10994,0,-0.791249366,8.628964334,0,-42.07630299,-5.259537874,TmCuAs2
mp-626093,3.4939,-1.223172186,1.546877396,0.044209809,-292.4541223,-5.222395041,H7NO6
mp-669496,0.6924,-0.132535894,6.2124228,0,-102.3659627,-2.559149067,PtI4
mp-865147,0,-0.25261484,7.453362323,0.001310054,-21.83477177,-5.458692943,Be2CuRu
mp-640553,1.7859,-3.198405496,5.229901443,0.027079974,-152.5900252,-8.477223624,BaNb2O6
mp-765481,0.4536,-2.259445455,3.539761727,0.038105725,-127.2917327,-3.977866648,Li2AgF5
mp-7614,0.7551,-0.46827251,5.829803505,0,-223.4612185,-3.724353641,Si(Ag4S3)2
mp-776332,4.7322,-0.313405415,1.136497677,0.076955856,-435.0174189,-4.94337976,Na(BH)5
mp-505148,2.4192,-0.994451454,5.1690453,0.033925932,-56.36268574,-3.522667859,ThPbI6
mp-707014,2.5304,-0.741894468,1.560492369,0,-365.2079357,-4.805367574,P2H10S4N2O
mp-557970,0,-1.863810158,4.969130781,0,-672.7772234,-5.606476862,SrCu(TeO3)2
mp-978840,3.436,-1.234854381,3.391221581,0,-711.290534,-6.586023463,SrLi2(SiN2)2
mp-28688,2.1932,-2.057386049,6.293362171,0.000136333,-56.01035517,-4.667529598,SrHgO2
mp-644923,5.6934,-3.273542012,1.740179653,0.015609003,-1137.541132,-7.899591195,SiO2
mp-973834,0,-0.078743695,16.60902282,0.001468137,-15.31398162,-3.828495405,PdAu3
mp-22862,5.0033,-2.092021334,2.105306534,0,-6.77629517,-3.388147585,NaCl
mp-21043,3.1584,-2.758296532,5.052776788,0.033176766,-22.77113746,-4.554227492,RbPbF3
mp-28997,0,-0.653244055,5.483900016,0,-137.8822977,-5.745095738,Y2AlGe3
mp-17240,4.5969,-2.638446951,2.595347476,0,-212.2354108,-5.895428078,RbNa3Li12(SiO4)4
mp-555253,1.5128,-3.118711601,5.369262955,0,-610.1484679,-7.626855849,La5Ti2AgS5O7
mp-18026,0,-0.172139739,6.671607796,0,-35.50165061,-1.479235442,SrZn11
mp-1008762,0,-0.697192508,10.88087629,0.446707779,-29.85197904,-9.95065968,TaN2
mp-5693,0.9263,-1.267360396,3.184246349,0.001565617,-22.97338404,-5.74334601,NaCrS2
mp-5852,0,-0.685515189,10.80132362,0,-41.49527358,-8.299054716,Pr(SiOs)2
mp-972649,0,-0.257168469,10.64730706,0,-28.85512301,-7.213780753,SmHoRu2
mp-866075,0,-0.538260845,15.45488548,0,-33.34048926,-8.335122315,MgTaIr2
mp-12755,0,-0.96321098,11.83536075,0,-33.3665275,-8.341631875,ThRh
mp-757878,1.4867,-1.487658152,2.478575048,0,-208.1133273,-4.335694318,Na5Cu(HO2)2
mp-556538,0,-1.381055545,3.505556809,0.006393109,-105.232103,-4.575308827,Na8(CuO2)5
mp-770860,2.1268,-2.480841665,3.580161117,0.082205448,-281.5042048,-7.037605121,Li4Mn2Fe3P6WO24
mp-568512,0,-0.072418195,2.597055342,0,-50.5473937,-1.743013576,Ba6Mg23
mp-978278,5.6382,-0.396366829,1.227698294,0,-264.0029993,-5.076980756,Na(BH)6
mp-12762,0,-0.483352892,4.797234642,0,-48.23831126,-6.891187323,PrB6
mp-166,0,0.016923985,1.573809807,0.016923985,-1.98537081,-1.98537081,Ca
mp-15931,0,-1.779720683,5.035876803,0.000828237,-134.7746338,-6.738731692,NdCrS3
mp-35986,6.3478,-4.33770598,5.487104052,0,-300.4959143,-6.260331548,Ba4Nd3F17
mp-977357,0,-0.376438339,16.59620704,0,-46.92654396,-11.73163599,Ta2ReRu
mp-541682,0.4517,-0.514449775,2.495912426,0,-155.6919063,-3.243581381,K3AlAs2
mp-569918,1.5516,-0.651153199,4.263004239,0.006023419,-571.2455696,-6.966409385,K13Na2W7N19
mp-684583,0,-0.931645035,3.375401194,0.04327232,-26.51155108,-4.418591847,CsO2
mp-30764,0,-0.432361517,12.74768992,0.046150532,-30.63743,-5.106238333,LiPt2
mp-745012,3.5898,-2.136505894,4.023174576,0,-284.5382913,-6.466779348,Ni2P2O7
mp-768061,0.966,-2.18866424,2.620861941,0.009423901,-308.4491262,-7.010207413,NaMnPCO7
mp-999558,0,-0.273295926,7.196626133,0.103857365,-30.61525587,-7.653813968,Mn2SiNi
mp-775843,1.6504,-2.349844206,5.5913597,0.00482546,-391.8049961,-9.795124903,Zr2N2O
mp-24148,1.9505,-2.903049611,6.300924349,0.019558833,-48.00148523,-6.857355033,LiLa2HO3
mp-1018027,0,-1.354520901,6.238656999,0,-19.74071933,-9.870359665,VN
mp-961666,0,0.392545252,6.956490135,0.843290307,-22.74259442,-7.580864807,MnNbAs
mp-558310,4.3898,-2.999027794,3.858491562,0,-312.3824354,-6.507967405,BaLi2SiO4
mp-5900,5.9376,-4.182598614,4.991296849,0,-279.0787804,-6.342699555,Ba2ZrF8
mp-560789,1.8658,-2.025060311,3.240526411,0,-147.7120453,-3.692801132,SbI(ClF3)2
mp-768347,0,-1.458578012,1.998611293,0.09411881,-136.0842035,-4.536140117,Li8NbS6
mp-1007961,0,0.193624709,8.16247854,0.195452936,-19.8126479,-4.953161975,CrInCu2
mp-1222,0.3863,-0.36340149,5.03073008,0.011407277,-64.73262798,-7.19251422,CrSi2
mp-16621,0,-0.507618347,7.850823989,0,-92.43890151,-4.20176825,HoAl7Au3
mp-29927,4.0573,-2.443226672,7.873915634,0.012224681,-97.52269478,-4.643937847,Pb7(BrF6)2
mp-626037,5.4249,-2.621777341,1.890264892,0.035359248,-124.1163594,-6.895353298,Si2H2O5
mp-935811,1.4302,-2.862183985,4.474690676,0,-38.21363899,-7.642727798,KNbO3
mp-8412,0,-3.098131741,5.893078943,0.042484727,-114.7506129,-7.171913307,LiCeO2
mp-974938,0,0.173648072,1.559114449,0.173648072,-4.26297777,-1.065744443,Rb3Li
mp-722862,3.2464,-1.278904836,3.141844232,0,-420.0603268,-5.250754085,CdH3NO5
mp-978997,0,-0.293111139,10.4122037,0.112090325,-51.06981527,-5.106981527,Sm(NiBi)2
mp-572543,5.4729,-2.936802159,3.651796096,0.007212553,-523.5906802,-7.272092781,CsPr(PO3)4
mp-690552,1.1296,-2.871330621,5.803168174,0,-150.9843688,-7.549218442,SrLaMnMoO6
mp-4989,0,-0.223159696,7.617336948,0,-62.19684352,-6.910760391,CrNiAs
mp-768518,4.4363,-3.743840398,4.697702956,0.00030896,-240.4388537,-8.014628455,LaAlO3
mp-982393,0,-0.288409419,7.543661806,0,-14.74806286,-3.687015715,Pm2ZnAg
mp-6820,0,-1.595236572,6.903157388,0,-76.68257414,-3.485571552,Cu2Hg2SF6
mp-759849,2.8232,-3.03739144,4.122407552,0,-409.2988037,-7.579607475,Li2Ti6Zn3O16
mp-2776,0,-0.23443744,9.253558158,0,-10.03827125,-3.346090417,Ga2Au
mp-559469,3.6961,-1.762110458,1.828282904,0.03511661,-195.3406712,-6.104395975,CaH6C2O7
mp-1006245,0,0.708522935,14.12048148,0.708522935,-40.55588653,-10.13897163,ErNp3
mp-26542,0,-2.395740408,2.890759892,0.035582774,-468.8443714,-6.894770167,Sb(PO3)4
mp-510438,0,-0.459062218,13.23896057,0.019634595,-48.63405836,-4.863405836,InPt
mp-776360,1.791,-2.350575353,5.586985067,0.004094313,-391.834242,-9.79585605,Zr2N2O
mp-704488,2.7909,-2.60530351,4.393978225,0.124565299,-760.8802512,-7.685659103,Th(MoO4)2
mp-2733,0,-0.329612825,5.003746283,0,-66.19759569,-6.017963245,Al8Mo3
mp-647426,0.0882,-1.590758556,4.460554607,0,-38.82255148,-4.313616831,Cs2NpBr6
mp-765566,0,-1.799280352,4.656725764,0.021431454,-96.84643129,-3.586904863,LiAg2F6
mp-3344,0,-0.853429322,7.533911574,0,-156.7172184,-6.529884099,CeAlRh
mp-758662,5.0335,-2.850498582,4.005088039,0.000361502,-153.6395515,-6.983615977,Ba2GaP4HO14
mp-771321,2.5335,-1.869458968,4.850992546,0.007287838,-167.7403916,-4.659455322,Cs4GeO4
mp-975346,0,-1.39118886,4.747144781,0.374190445,-28.13012145,-5.62602429,RbMnO3
mp-777447,3.4871,-2.767385678,2.875961444,0.096180607,-101.9586842,-5.097934211,LiFe2F7
mp-625578,4.2047,-1.149508071,2.108418083,0.012483097,-141.9063721,-4.434574129,H5BrO2
mp-16807,0,-0.565838985,8.40892827,0,-124.4126116,-5.655118707,Dy3(AlNi3)2
mp-722,0,-1.860489533,6.701860664,0.017599147,-82.66493748,-5.904638391,Pr3Se4
mp-556615,3.5328,-2.419762248,6.671779159,0,-206.5718753,-6.663608881,CaBi6(PO5)4
mp-767538,1.2257,-2.753117697,2.853542046,0.029042234,-163.5543874,-7.434290336,NaCePCO7
mp-28431,0.5627,-2.072257334,3.975959796,0,-68.67816301,-3.815453501,Sb(IF3)2
mp-31176,0,-0.667069086,9.469828274,0.002630544,-65.46769187,-5.455640989,HoNiSn
mp-4044,1.2833,-1.202714231,7.224599839,0,-76.74376206,-4.796485129,ErAgSe2
mp-7940,0.6952,-0.983771426,5.13490549,0.029429607,-44.27511604,-5.534389505,KNbSe2
mp-11684,5.8114,-3.248762653,2.79631217,0.040388363,-188.995484,-7.874811835,SiO2
mp-2502,0,-0.309629802,9.200748196,0,-6.01217223,-3.006086115,TmCd
mp-11696,0,-0.087367885,11.06042466,0,-80.5992338,-8.05992338,As3W2
mp-849772,0,-2.515659648,4.931184351,0.084073483,-149.040546,-7.452027298,LiTi3Nb(CuO4)3
mp-730585,7.1301,-2.633565226,2.059776814,0.012132279,-389.4134026,-5.408519481,LiBH2OF4
mp-866834,1.9708,-1.649068774,3.051164733,0.124183642,-66.83028519,-4.773591799,Ca2SnS4
mp-752529,0.9194,-1.36892197,2.155840892,0.09840211,-46.72346095,-4.672346095,Li5CrS4
mp-1018662,0,-0.978593073,8.341772914,0.0146845,-36.35118124,-6.058530207,CeSbPd
mp-862912,0,-0.590052552,13.5560333,0,-13.95760631,-3.489401578,PmHgAu2
mp-561947,0.7564,-2.268757247,6.345339001,0,-16.80451714,-3.360903428,CsHgF3
mp-23549,3.2839,-2.453401792,5.923382606,0,-579.4895436,-7.243619295,Bi3B5O12
mp-714929,0.3418,-1.868423704,3.989574747,0.169875819,-43.36361071,-7.227268452,CrO2
mp-8883,0.1942,-0.342398712,5.054170416,0.013247355,-16.72661564,-4.18165391,GaAs
mp-28896,0,-0.178670197,12.35500359,0,-80.71062538,-6.725885448,CuBIr
mp-25871,0.2558,-2.401912581,2.957367455,0.039353891,-342.0876888,-6.5786094,Li3Cu2P5O16
mp-961703,0.5526,0.224422192,5.796605112,0.626571019,-8.6299365,-2.8766455,NaLiPt
mp-29760,3.1486,-3.340218806,2.977717828,0.007756497,-295.0910649,-7.197343046,Ca10P6O25
mp-5020,2.5204,-3.510898695,5.718018367,0,-40.05546006,-8.011092012,BaTiO3
mp-17375,1.3295,-1.47139906,3.874805884,0,-160.889895,-4.022247376,K2Na3TlO4
mp-22432,0,-0.97759801,5.926011003,0,-203.4267809,-7.265242174,Ti4Cu2O
mp-778861,1.1214,-3.04657491,3.333580384,0.055212319,-221.8028935,-6.161191487,LiV2OF5
mp-34381,3.7607,-0.614804386,2.467163611,0.00208011,-26.11930439,-4.353217398,H4IN
mp-265,0,-0.684115102,20.76033384,0,-41.18339822,-10.29584956,TaIr3
mp-12055,0,-0.373777489,7.431309494,0,-7.87739271,-2.62579757,LaCd2
mp-763204,0,-2.358665893,4.250430636,0.04197852,-161.6108969,-6.733787371,MnOF
mp-472,0,-0.154555235,8.427793079,0.040476329,-38.50653658,-6.417756097,UAl2
mp-3952,3.2492,-3.675265386,5.601834852,0,-229.9675217,-8.213125775,BaY2O4
mp-28662,0.4362,-0.26019686,7.026263165,0,-157.8537787,-3.28862039,Tl2SnTe3
mp-684027,0,-0.101563808,2.96226101,0.019280949,-185.8666564,-4.040579488,Mg3(MnAl9)2
mp-771669,0.5113,-2.054067268,3.63635765,0.063556492,-142.838321,-6.492650954,Li5Mn5O12
mp-768971,0,-1.593626071,7.700875589,0.076901129,-219.5898372,-5.489745931,Li(BiO2)3
mp-5029,0.3307,-2.625061858,7.461054958,0.052633647,-248.4493632,-6.901371199,Ho2Cu2O5
mp-3440,0,-0.641625779,7.840885803,0.083635611,-72.78959322,-4.549349576,Li2(LuGe)3
mp-699453,3.8425,-1.635128118,2.930868987,0,-691.8741655,-5.405266918,RbAs2H5O8
mp-774417,2.7074,-2.504883514,3.715673722,0.002468725,-239.6955886,-7.049870254,Sn3P6WO24
mp-975055,0,0.508301673,2.798837057,0.508301673,-5.14401107,-1.286002768,Rb3Ac
mp-754353,0.9726,-1.642277833,6.199147957,0.051069408,-68.94839946,-9.849771351,Zr3N4
mp-33683,0,-0.168205305,6.639285886,0.020680096,-29.21567967,-3.651959959,AgSbSe2
mp-753720,2.4517,-1.254650063,3.744100854,0.025620939,-57.59593787,-4.113995562,Li3BiS3
mp-774247,2.6907,-2.24656966,2.833666742,0.068830631,-157.350585,-6.051945577,Na3FeBSO7
mp-851357,0,-0.220405001,6.424254858,0.340871855,-147.317067,-7.015098427,Fe2S
mp-778859,2.6271,-2.490200844,3.213330233,0.002017421,-258.6089575,-7.183582152,Li3Mn2Fe(BO3)3
mp-27148,0.8435,-0.325888916,2.475281,0,-124.2140476,-5.175585318,BeP2
mp-972529,0,-0.309820972,5.382360974,0.487684642,-22.18501604,-5.54625401,SmP3
mp-555580,4.3718,-3.28217501,3.174275806,0,-284.6429972,-8.132657064,SrZr4(PO4)6
mp-2596,0,-1.296824111,14.44651084,0,-23.4869761,-11.74348805,NpN
mp-6989,3.9034,-2.334567671,4.753663835,0,-59.532354,-5.9532354,BaSeO3
mp-773469,0,-1.875324896,4.581192594,0.11182514,-174.5828717,-6.23510256,Li4Mn5Te3O16
mp-849513,2.229,-2.38649566,3.609548068,0.029145868,-250.9685904,-6.971349732,Fe2Sb(PO4)3
mp-570757,0.9826,-0.455319574,5.840488552,0,-325.9846536,-4.527564633,Nb2Tl3CuSe12
mp-763331,3.0784,-3.002086833,3.088859423,0.033631724,-95.96843241,-5.998027026,LiMn2F5
mp-16740,0,-0.685129443,7.899615875,0.025761914,-59.26021151,-6.584467946,TiGePd
mp-24142,5.8393,-2.718126129,2.437805218,0.009474677,-138.405211,-5.323277348,MgAlH4O2F5
mp-26767,1.5659,-2.589063059,2.969684487,,-260.8946156,-7.247072655,LiNb(PO3)4
mp-699352,0,-2.29324963,3.239508927,0.100464511,-243.1729862,-6.754805171,LiFe2(PO4)3
mp-6019,3.4647,-3.486474373,5.146626068,,-156.82102,-7.841050999,Sr2YNbO6
mp-971707,2.2276,-3.181323875,7.346222875,0.467025102,-61.92901729,-6.881001921,Tm2Mg2O5
mp-765311,1.5725,-2.433348906,3.113240771,0,-117.8590272,-6.932883952,LiVCrP2(HO5)2
mp-29682,0.4566,-0.589473635,6.399013719,0,-200.5148233,-3.580621844,BaAg8S5
mp-949028,0.7334,0.027153815,4.796117074,0.027153815,-183.183207,-3.98224363,Sn
mp-704184,0,-2.478409737,3.098759378,0.117568407,-505.4156268,-7.019661484,LiMn(PO3)4
mp-7874,0,-0.26835206,4.658536183,0,-20.73288737,-3.455481228,LiGaGe
mp-772875,3.4322,-1.757313494,4.354528956,0.01375952,-121.8536703,-3.384824174,Ba2SrI6
mp-696125,5.2544,-2.634305057,2.26878773,0.107440095,-303.7984822,-6.075969643,Li10Si(PO6)2
mp-754815,3.9934,-1.920899526,3.481606453,0,-38.07605319,-4.759506649,YBr3
mp-556775,2.0399,-1.13932253,3.998459694,0.000980825,-112.2542467,-3.50794521,ZnS
mp-1654,0,-0.37715363,9.264251696,0,-37.24459416,-6.20743236,CeNi2
mp-1018737,1.6589,-0.646829597,2.047951204,0,-20.12990484,-3.35498414,KMgP
mp-764333,0.0278,-2.96867883,3.648441162,0.058015528,-143.6464287,-6.529383122,V3(OF3)2
mp-37779,0,-1.653634245,4.982767577,0.111431919,-89.69564758,-6.40683197,Fe5CuO8
mp-772572,1.138,-1.527372788,3.864779711,0,-138.1333633,-4.604445444,Rb6Co2O7
mp-17216,0,-0.80474313,10.3578623,0.006294042,-314.8603835,-8.746121765,Hf5Si4
mp-1007694,2.6443,-2.555121568,4.134291016,0,-182.5250147,-6.518750524,SnPO4F
mp-13903,3.7147,-2.768958131,4.280992398,0,-35.95719012,-4.494648765,ZnSnF6
mp-780895,0,-1.638377299,4.584351424,0.113338178,-147.1466151,-6.131108962,Fe4O7F
mp-766168,1.7655,-3.195873824,4.680278013,0.048710407,-251.6003323,-8.386677742,Ti4SnO10
mp-989570,3.6423,-2.199689361,3.072271334,0.015442018,-37.32247182,-3.732247182,Cs2CaSnCl6
mp-772781,5.7659,-3.302016565,6.586577779,0.040325037,-246.6676584,-8.22225528,Lu2B4O9
mp-7907,2.1416,-0.831059396,4.145148361,0,-28.5444466,-4.077778086,Al2ZnSe4
mp-984791,0,-0.325404259,6.774907408,0.012686963,-9.61155881,-2.402889703,CaTmCd2
mp-766983,2.0229,-3.169815662,4.149492378,0.020924738,-516.932729,-8.077073891,LiCa2Nb3O10
mp-18882,2.7465,-2.767446257,2.834442139,0.027478023,-390.6265971,-7.512049944,VSiP2O9
mp-694885,2.3807,-3.184950505,4.948546665,0.043310917,-163.4568416,-8.172842081,CaLaMnNbO6
mp-569421,1.3411,-0.156444364,6.9082285,0,-168.1017141,-2.101271426,Hg9P5I6
mp-1013526,0,-1.296497433,3.364334453,0.017218677,-19.89753471,-6.63251157,VS2
mp-777235,0.4882,-2.226837433,3.35160802,0.030996742,-131.8853751,-7.326965281,V5CuO12
mp-769609,1.5583,-2.42217658,4.040842033,0.005218509,-220.9327087,-6.904147146,Li4VCr3O8
mp-707027,5.0958,-3.285699644,2.920250459,0.001311898,-230.3475028,-7.678250092,CaScSi3HO9
mp-774995,0.9347,-2.49180973,4.156885018,0.063376584,-171.6570635,-5.721902117,Fe5(OF4)2
mp-782065,3.5399,-2.23607178,3.707392956,0.043641905,-197.9233293,-6.18510404,LiTePO5
mp-582394,0,-0.300343432,8.410440334,0.023661517,-165.879705,-6.911654374,Nd2Co7B3
mp-569120,0,-0.839690982,16.25548175,0.033752158,-26.2943462,-6.57358655,NdPt3
mp-770367,0,-2.226094876,2.782374003,0.040500714,-235.764658,-6.549018278,LiV2(SO4)3
mp-21357,0,-0.151097317,13.21362976,0,-88.54267644,-8.854267644,U2Fe2Sn
mp-626716,3.6187,-1.61091624,2.074746317,0.003728825,-26.81846979,-4.469744965,KHO
mp-744811,4.9625,-1.186468267,1.726883613,0.034509276,-543.5386229,-5.546312479,NiH24C2S2(N3O7)2
mp-570971,1.3625,-0.756299419,5.191033779,0,-124.4516412,-5.65689278,Sr3Ga3N5
mp-32884,1.3054,-0.274491117,6.375056243,0.003622475,-19.89047807,-3.315079678,Ag2S
mp-10857,0,-0.439199383,7.20127607,0.0055212,-76.96435107,-7.696435107,Tm(BC)2
mp-676400,1.6998,-0.860038662,5.608051533,0.074421829,-22.21240639,-5.553101598,TlNO2
mp-687204,3.3317,-2.629822108,4.743886317,0,-349.1186422,-7.934514596,NdReMoO8
mp-561551,5.176,-3.677177511,3.939498252,0.009985426,-187.6385232,-8.529023781,Y2Si2O7
mp-780886,0,-1.659967929,4.52746462,0.084651304,-163.2401709,-6.801673789,Mn3Cr3(CoO8)2
mp-772456,0.1127,-1.837749269,4.337325843,0.04432633,-179.7804924,-6.420731871,Li2Mn3CuO8
mp-767065,0.5045,-2.798839531,2.852902485,0.054901473,-155.4648495,-5.552316054,LiMn3F10
mp-862700,0,-0.478092135,13.88221296,0,-37.17305891,-9.293264728,AlVOs2
mp-22583,2.0423,-0.928306567,2.507045992,0,-49.14408334,-4.46764394,KInP2S7
mp-567729,0,-1.264487997,5.21123632,0,-205.2858276,-5.132145691,La7C3I10
mp-866189,0,-0.253429643,7.948142026,0,-8.52408087,-2.84136029,CeCd2
mp-28072,3.9215,-3.515179425,5.968729111,0.039519742,-140.1617497,-7.786763874,La2Be2O5
mp-759280,4.4162,-3.185632153,3.019747809,0.008081449,-286.5815213,-7.960597814,LiZr2(PO4)3
mp-778864,0,-2.559006833,3.403006157,0.036693285,-288.7552893,-7.218882232,Li2Mn3(PO4)3
mp-557115,3.9319,-2.702387627,3.655646931,0.005185503,-140.1083891,-4.670279635,Cs2As2OF10
mp-1007652,0.3241,-0.228595942,5.321023041,0.008522463,-15.71378393,-3.928445983,InAs
mp-18835,1.7786,-2.711492049,3.570532657,0,-91.96322549,-7.663602124,VPO4
mp-559916,2.444,-2.282014036,2.47178339,0.0002723,-195.8325183,-5.153487323,Na17Al5O16
mp-555559,1.6363,-2.807104014,6.896765351,0.007399728,-330.0579586,-7.501317241,Sm3NbSe3O4
mp-779571,3.8196,-3.312107472,4.495207697,0.06749092,-660.5261572,-8.256576965,La3B5O12
mp-559516,2.9435,-2.358224947,2.548296176,0,-606.0874323,-6.313410753,K3Nb(SO4)4
mp-10251,3.9643,-3.301490616,6.28860201,0.007493944,-112.6888376,-7.043052349,LiDyO2
mp-8301,0.7324,-2.534221502,7.650172313,0,-52.90449846,-10.58089969,Gd2CF2
mp-766360,0,-2.467633159,5.964833503,0.040797518,-197.5657227,-6.812611127,La6Cu6O17
mp-849516,0,-1.862787186,4.524594014,0.074640611,-293.5671165,-6.381893838,Li4Mn5(CuO6)2
mp-6507,3.3241,-2.592413577,3.420173697,0,-158.7187478,-6.104567221,Na2Zn2Si2O7
mp-505513,0,-0.44456341,13.19073592,0,-274.0124103,-9.786157511,Nd(Re2Si)2
mp-747,0,-0.727184825,13.27217771,0,-32.43961187,-5.406601978,BaPt2
mp-530933,3.4494,-0.911552844,2.323458108,0.010652185,-568.4835761,-5.921703917,Li5P2N5
mp-31232,2.1177,-2.304344597,5.437511048,0,-100.9606875,-6.310042969,In2PO5
mp-23559,3.059,-1.054557017,5.032244302,0.00513815,-118.112028,-4.542770307,In(IO3)3
mp-9047,2.299,-1.109024286,2.55809889,0,-94.5337444,-4.72668722,RbBS3
mp-12964,0,-0.490608924,9.011435001,0,-74.72534149,-6.227111791,TbNi4B
mp-504748,3.3932,-2.318443898,6.749839517,0,-270.7897956,-6.447376086,P3Pb5ClO12
mp-764345,2.1429,-2.582632712,3.687242243,0.022935029,-181.739821,-7.572492541,CrPO4
mp-973055,0,0.162215415,14.42208829,0.162215415,-3.53583132,-0.88395783,Hg3Au
mp-771360,2.5692,-2.534310899,3.409861513,0.067760654,-266.219594,-6.655489849,Li6MnSn3(PO4)6
mp-12996,0,-0.541547346,5.08521427,0,-30.95918557,-3.869898196,LaMg2Pd
mp-9994,0,-0.843238529,8.695701269,0.014521184,-228.5883016,-5.44257861,Ho11Ge10
mp-4253,0,-0.186037193,6.407040296,0.084884418,-95.46749238,-9.546749238,V(CrC)2
mp-850898,0,-2.43442957,3.135375389,0.081369085,-164.7180809,-7.487185497,LiMn2(BO3)2
mp-768369,6.2374,-4.255290374,3.971248756,0.055620495,-251.2533046,-6.281332614,Ba2YF7
mp-779358,4.0157,-2.255956089,2.532493265,0.047727545,-370.9257552,-5.795714925,Na3VO4
mp-744929,2.6466,-1.664045653,1.865075903,0.067632445,-196.697625,-5.785224264,Li2Cr2H4O9
mp-568436,1.127,-0.75350595,4.741896717,0,-298.7001446,-5.333931154,Sr7GeN6
mp-644739,0,-0.380454241,6.385393237,0,-51.54756624,-3.681969017,LaGa6
mp-541462,3.5305,-3.457979226,7.611014542,0,-301.8482333,-9.43275729,SrTa4O11
mp-2557,0,-0.35813622,5.599219026,0.015705029,-43.83511152,-7.30585192,Zr2Al
mp-542081,2.2563,-1.456535418,2.574087924,0,-238.7848146,-4.974683636,K2LaP2S7