id,band_gap,formation_energy_per_atom,density,e_above_hull,energy,energy_per_atom,pretty_formula
mp-773100,0.8308,-2.93743100890625,6.8332208679356725,0.06776940726562762,-116.97241201,-7.310775750625,La2BiO5
mp-755610,2.4527,-3.100648032,5.824830718460519,0.06374442399999848,-101.94605398,-6.796403598666668,Ba6HfO8
mp-771203,,,,,,,
mp-22935,2.4802,-1.967690128040345,3.9465022539900665,0.0,-19.71189886,-3.285316476666667,CsBrF
mp-684502,0.33999999999999986,-2.3183726813809513,3.3751859969780487,0.13480752891667702,-405.82676981,-6.763779496833331,Sn2P3O10
mp-16773,5.319699999999999,-2.9307034831825387,3.4432692091377946,0.003283111805557404,-262.19711363,-7.283253156388889,KTb(PO3)4
mp-38843,2.0939,-3.3950261113888884,6.623522553160957,0.09852066166665452,-81.74424511,-9.08269390111111,CaTa2O6
mp-626112,3.3896,-1.2260953669800003,1.4933175338978584,0.03658069089285654,-293.07982707,-5.233568340535714,H7NO6
mp-542054,1.8834,-1.638219718940886,8.09516095451438,0.013897306120694177,-279.64964795,-4.821545654310344,Hg9(PO4)4
mp-764741,1.3031,-2.2866172634108524,3.1999036182457385,0.12433908421512553,-305.27278359,-7.099367060232559,Li3Fe8(BO3)8
mp-10985,0.4689000000000005,-0.6690180972916675,4.9809549924149765,0.006432234444446293,-48.4764848,-4.039707066666667,RbCu3S2
mp-504222,,,,,,,
mp-568561,,,,,,,
mp-25605,,,,,,,
mp-686086,0.4892000000000003,-0.28328168656249986,8.272793883110023,0.0035894500000002156,-292.65713058,-3.048511776875,Tl9SbTe6
mp-744149,,,,,,,
mp-566457,,,,,,,
mp-26835,3.9539999999999997,-2.4569234716165416,5.107152572820625,0.04110357197368408,-252.8976288,-6.655200757894738,Li3Bi5(PO4)6
mp-632402,0.38370000000000015,-3.8401536528351516,4.688018351726663,0.02530695727273624,-68.80588685,-6.255080622727273,LiCaUF8
mp-566285,,,,,,,
mp-554615,5.373399999999998,-2.9370103083214287,3.212186891403116,0.005874666527775574,-524.58055347,-7.285841020416667,KEr(PO3)4
mp-775746,,,,,,,
mp-768908,0.5903,-3.177723562500001,8.585431531736019,0.07929488199999922,-36.68806742,-7.337613483999999,Ho2TeO2
mp-559822,3.6846,-3.3726838403113333,5.479197676903935,0.006226816541673229,-457.20506819,-7.6200844698333325,La2TaCl3O4
mp-752895,0.9648,-2.6288333130950003,2.9117878345955743,0.10001575874999967,-73.07768454,-4.56735528375,Li3CuF4
mp-772371,,,,,,,
mp-767160,,,,,,,
mp-853265,,,,,,,
mp-849431,,,,,,,
mp-8039,7.4282,-3.891391157142501,2.8917796786693923,0.0006555525000049299,-23.57279086,-5.893197715,AlF3
mp-674361,2.9655,-2.903901477283333,4.384557221573046,0.004793498799999796,-392.66731686,-7.8533463372,LiNbO3
mp-762292,1.2352000000000003,-2.4600947004824563,3.865612429643732,0.04774471618421039,-133.83592626,-7.043996118947369,Li4V5O10
mp-769758,,,,,,,
mp-769843,,,,,,,
mp-18812,3.0196,-3.182742258333333,4.783445755926281,0.0,-96.49522961,-8.041269134166667,NdVO4
mp-24001,3.9583,-2.3772782586259185,3.0353676577577513,0.0,-170.28934394,-6.081762283571429,NaZn2P2HO8
mp-27295,3.4455,-2.7606341755038764,3.9460057268049566,0.03917846726744223,-532.09468356,-6.1871474832558135,Mg14Ge5O24
mp-768094,2.4394,-2.136068992901785,2.778645793421185,0.16471484166665284,-313.41313971,-6.529440410625,Na2FePCO7
mp-761309,,,,,,,
mp-777966,,,,,,,
mp-766664,1.6747,-2.5802963425,3.6436677220458034,0.045437425238106684,-577.36016185,-6.873335260119048,LiFeSiO4
mp-23942,5.2359,-1.872136182234127,2.36590737677528,0.0,-224.64025013,-6.240006948055554,KPHNO2
mp-39387,3.6266,-3.4223033870021218,6.450473481486318,0.019699218409090943,-183.70767774,-8.35034898818182,SrLiTa2O6F
mp-674297,2.5717,-1.4465268357259995,2.116737399681946,0.008877638500004892,-233.87460622,-5.8468651555,NaNO3
mp-3248,3.6478,-2.857053535,6.00820397063667,0.0,-86.83571449,-7.236309540833332,TbAsO4
mp-19996,2.6513,-3.4280740447499998,6.4715688832040215,0.005054178000021281,-87.7701022,-8.77701022,Ba2GdNbO6
mp-974603,0.40170000000000017,-1.7180649541266666,7.521712542905243,0.008098650000000429,-16.5978483,-2.76630805,HgF2
mp-765484,0.0,-1.6014689203900132,2.367824156580087,0.03442900368918345,-313.14729541,-5.591915989464287,MnH6SO6
mp-24940,,,,,,,
mp-557933,5.5246,-3.2703435245833328,1.881239924982676,0.007654144583332467,-569.41805199,-7.908584055416666,SiO2
mp-777094,,,,,,,
mp-557049,1.6366000000000005,-0.9573272734020002,4.532820656638989,0.0074417344999995185,-72.08667777,-3.6043338885000002,CdSbS2Cl
mp-5152,4.461,-3.7882768339062487,5.347397504686488,0.0,-267.31978752,-8.35374336,La2SiO5
mp-565254,,,,,,,
mp-31417,3.4828,-3.756198635795455,7.402600526252836,0.0,-194.40010037,-8.836368198636364,Nd3TaO7
mp-6244,1.1940999999999995,-1.0029884965885418,7.594653151622246,0.0,-115.59948201,-4.81664508375,HoCuPbSe3
mp-764359,,,,,,,
mp-774714,3.1718,-2.531047784081632,3.3817152759987152,0.060526519285714286,-180.16466519,-6.434452328214285,Li3Sb(PO4)2
mp-561270,2.6395,-1.3925276744653854,2.593945385299101,0.051799883461542066,-319.45330092,-6.14333271,SnH4C2NO4F
mp-559375,3.3065,-1.7455545112888011,3.1258206713390497,0.0,-421.71302799,-5.271412849875,CsKTeH6SO10
mp-761297,,,,,,,
mp-998398,1.1922,-0.7204030379999999,3.732407200876462,0.022051911000000143,-15.25677352,-3.051354704,InSnBr3
mp-849217,,,,,,,
mp-706995,2.6897,-0.8367350127658055,1.9076581400248604,0.0,-586.42364684,-4.729222958387097,ZnCoH18N6Cl5
mp-628768,0.8023000000000002,-0.4536432131250001,5.388627373325894,0.0,-264.52371783,-3.6739405254166666,In4SnSe4
mp-676684,3.2499,-3.218298781527777,4.552221900684411,0.0783358776666665,-226.89201207,-7.563067069,Sr4Nb2O9
mp-771178,,,,,,,
mp-767393,2.2812,-3.0716017970205467,3.869749464641561,0.022003357191771045,-568.53083011,-7.788093563150685,Li15Ti11Nb5O42
mp-29483,2.0596,-1.1627057506666667,4.155464949999709,0.011256734999999018,-60.29155208,-3.0145776040000003,MgInBr3
mp-770494,2.5772,-1.2314569379761906,3.850377957193661,0.0944158496428562,-91.09258765,-3.2533067017857142,LaMgI5
mp-555472,4.3108,-3.1313121649999998,3.2486900804062877,0.00033324380952493016,-310.64001267,-7.396190777857143,Na4Zr2(SiO4)3
mp-6094,4.4678,-3.3876329189236123,2.8653387031634603,0.022632048194433096,-173.62771201,-7.234488000416667,Ca2MgSi2O7
mp-767444,,,,,,,
mp-542724,3.5826,-3.5670140666666668,5.681236091282157,0.0010558008333347855,-106.84411684,-8.903676403333334,LaNbO4
mp-705333,2.6911,-2.511478332400793,2.936197228621213,0.034229705208336014,-336.61277382,-7.0127661212499985,LiMo(PO4)2
mp-764331,,,,,,,
mp-559493,2.6595,-1.8262681051391432,1.8848254303449568,0.0,-356.74913647,-4.459364205875,TiPCl7O
mp-3521,7.8439,-3.2549454205155564,2.4136827016603752,0.0,-66.40697341,-5.5339144508333336,NaBF4
mp-565587,,,,,,,
mp-769823,,,,,,,
mp-774090,,,,,,,
mp-1020613,1.8405,-1.6484962017499996,4.028758204481418,0.0,-331.1870734,-4.1398384175,Rb5GaO4
mp-762815,,,,,,,
mp-775494,,,,,,,
mp-633143,,,,,,,
mp-13744,2.4167,-1.8364839416071423,4.211803431127209,0.0,-63.12415227,-4.508868019285715,Rb3GaO3
mp-776005,0.9098000000000002,-1.7989781815833326,5.603331913890179,0.03550231574999785,-110.47255595,-5.5236277975,Li4FeBi(TeO6)2
mp-766632,,,,,,,
mp-558769,6.3094,-4.0755109149671975,5.96302197120386,0.006151647462122156,-558.83008867,-6.350341916704545,Na3Li4Th6F31
mp-765434,,,,,,,
mp-13974,2.1791000000000005,-3.4127468089687496,8.480123291119062,0.0,-38.215794200000005,-7.64315884,Ho2SeO2
mp-10418,2.2566,-1.87202176125,4.412898921117381,0.0,-42.17790328,-5.27223791,RbSbO2
mp-764833,,,,,,,
mp-770416,3.2102,-3.3129675963888894,8.36505736773975,0.0015661508333337792,-584.89121064,-8.123489036666667,Dy2WO6
mp-764469,,,,,,,
mp-540942,4.5419,-2.659165249082,3.441655438355419,0.0,-182.77032782,-4.5692581955,KDy2Cl7
mp-6287,0.2775999999999996,-0.4992853002999999,5.262596113280808,0.0015548866000028028,-98.29817023,-3.9319268092,Cu6Hg3(AsS3)4
mp-29417,3.3731,-1.6465128155000002,3.133901826702742,0.0,-73.11165103,-3.6555825514999998,Na3ScBr6
mp-9573,1.2979000000000005,-0.3933879149999999,3.0894226686802533,0.0,-21.78061535,-3.6301025583333337,NaBeAs
mp-763880,,,,,,,
mp-770386,1.7180000000000002,-2.5488891992545493,3.7474881309240735,0.04034266935425723,-191.84096509,-6.8514630389285704,LiMnAlO4
mp-10219,4.9484,-4.234638565257779,4.961870230326431,0.009315616666667026,-49.67241191,-8.278735318333334,YOF
mp-9437,0.5670000000000002,-0.3383128283333339,8.448733889055742,0.0,-23.71454015,-7.904846716666667,NbFeSb
mp-10731,3.681,-2.9986432037500004,6.3610468606649055,0.006448783999999819,-68.20826524,-6.820826524,Ba2PrSbO6
mp-743860,2.7972,-1.95205117818,4.2532066427559,0.010245494166679414,-415.64641591,-5.772866887638887,VZn2HO5
mp-669521,2.3494,-2.19461531584826,4.779471640459444,0.0012054580434837092,-633.16841645,-6.882265396195653,Nb3Te4ClO15
mp-29704,2.2331,-2.003615069525862,2.831850028333513,0.0,-310.79479574,-5.549907066785713,Cs(SO2)2
mp-773510,1.3891,-2.279037240892857,3.048922551989484,0.09750864176786857,-104.69898871,-7.478499193571428,TiV2CrO10
mp-13541,4.579700000000001,-3.1968054828030303,4.086795006706383,0.0,-78.97349283,-7.179408439090909,Sr2Mg(BO3)2
mp-558469,1.7782000000000004,-0.5072034818799607,4.3142934802309485,0.001661683789063062,-294.48641360000005,-4.090089077777779,Ag2PS3
mp-765267,,,,,,,
mp-7784,3.1039999999999996,-1.7395198408333326,4.373809187042962,0.010420094583333928,-72.41457713,-6.0345480941666665,SbAsO4
mp-33551,1.1990999999999996,-1.8178684719047613,4.898361443985809,0.13653479053570727,-90.00589041,-6.428992172142857,LiFe5O8
mp-560921,2.7310000000000003,-2.2090333514772733,3.8472814895396903,0.0,-273.57536041,-6.2176218275,NaAlAs2O7
mp-761664,,,,,,,
mp-6493,4.6294,-3.3755852661904755,2.957136937375312,0.0,-198.52603218,-7.090215434999998,CaMgSiO4
mp-777477,3.1167,-2.5579046739877778,3.1581668466649444,0.3626840716666688,-114.69939389,-4.779141412083333,LiFeF4
mp-558065,3.4034000000000004,-2.509581343150921,3.777724978082775,0.0058145163440928025,-841.76978628,-6.788466018387097,In4(P2O7)3
mp-776803,,,,,,,
mp-866696,0.9362999999999992,-2.289530640572918,4.196210889630284,0.052883070833334316,-153.33040008,-6.38876667,La3ScBeS7
mp-13283,1.0560999999999998,-2.4772951692083334,6.055350695392463,0.0,-128.06169554,-6.403084776999999,Sm(ErS2)3
mp-22994,3.6546,-1.3902732795833332,3.9790446045934793,0.004816624000000047,-92.48517889,-4.6242589445,LiIO3
mp-7656,2.2018,-1.8272290862499996,2.895920441424792,0.0,-358.75326146,-4.48441576825,Na5GaO4
mp-705900,2.8319,-2.139236596351351,5.730108588693026,0.0,-507.07174537,-6.852320883378378,Hf3Tl10Mo12PbO48
mp-768002,,,,,,,
mp-780032,,,,,,,
mp-721249,4.4922,-2.5134323903523814,2.4500909835861626,0.08360323439999995,-296.63421454,-5.9326842908,Li10Ge(PO6)2
mp-767344,,,,,,,
mp-765835,,,,,,,
mp-772025,0.9957000000000004,-2.342188458522729,7.342885318510693,0.10900315159089492,-302.38623918,-6.872414526818183,TaIn3O7
mp-625812,2.4593,-1.086597473967879,3.0023246615614982,0.3464104509090937,-110.82570585,-5.037532084090909,Sr(H2O3)2
mp-558195,4.0854,-3.3372018093688887,4.993557761410654,0.0,-177.10679463,-7.379449776249999,Ba2HoB2ClO6
mp-556030,0.4411999999999998,-2.4640237388912496,4.734030028316292,0.009931539374992582,-202.14093562,-6.316904238125,BaCuCO3F2
mp-560624,4.2853,-2.577117184241073,3.5118304461114187,0.003974341458335751,-306.78160767,-6.391283493125001,Na5Bi(P2O7)2
mp-778279,,,,,,,
mp-779941,,,,,,,
mp-17344,1.4960000000000004,-1.5426237389204551,5.694182973987021,0.0,-113.49362829,-5.158801285909092,RbEr2Cu3S5
mp-29459,0.9262,-1.1042977108928569,4.003854058558154,0.020327240654758327,-109.65075862,-3.916098522142857,Rb3Mo2Br9
mp-752429,0.9279999999999996,-2.466957132750001,7.703033598658602,0.07875575799999979,-135.06361638,-6.753180819000001,ScTlO3
mp-943462,3.975400000000001,-1.893576236906852,3.0162224588293034,0.16378470652777732,-210.51383959,-5.847606655277778,LiFeHSO5
mp-554605,3.0336,-2.29383131902,3.2510169973657987,0.0,-93.13011444,-3.880421435,Rb2SbCl3F2
mp-761036,1.6876,-1.329227544557292,4.646705986604882,0.0,-58.7202828,-4.893356900000001,CdSeO4
mp-767693,,,,,,,
mp-776076,4.6059,-3.3746126052499994,4.406776999195924,0.038947208833333136,-295.61936734,-7.3904841835,BaSiO3
mp-669471,1.8919,-0.4397395169927275,2.9244591590492006,0.09934656343714288,-186.60677067,-4.2410629697727265,HgS4(NCl)3
mp-762311,3.2221,-0.9696436658229164,1.7695977952388668,0.0938961411475976,-451.88015034,-4.707084899375,ZnH12N4Cl4O3
mp-765519,,,,,,,
mp-752724,3.0352,-3.82211375015625,6.4579612793002745,0.08182749218750017,-137.73021585,-8.608138490625,Ho2TiO5
mp-554159,5.5993,-2.9720043185416665,2.5778618997334024,0.005658389375004624,-107.4786913,-6.71741820625,Li2BeSiO4
mp-755652,3.4118,-3.8745042617045455,8.681247224738842,0.0,-196.03468592,-8.910667541818182,Dy3TaO7
mp-777627,,,,,,,
mp-29187,1.2159000000000004,-0.3186981940306118,3.60974215564544,0.0,-167.39693881,-5.978462100357143,Co(SiP)3
mp-765952,,,,,,,
mp-23526,5.5415,-1.1960070877099995,2.374710391499302,0.0,-106.09181729999999,-4.4204923875,KClO4
mp-565513,,,,,,,
mp-758840,5.8809000000000005,-2.503880840232749,2.0829399725093816,0.0,-736.39677485,-7.080738219711539,KB6P(H2O7)2
mp-27583,5.3260000000000005,-2.861613592440476,3.001683707761304,0.0,-359.15066091,-7.1830132182,Sr2P6O17
mp-19376,1.8879,-2.930181895373034,4.492853423134715,0.0363191124999922,-171.05526017,-8.5527630085,TiMnO3
mp-569427,1.5606,-0.9494194224097224,3.23093283988775,0.0,-121.02836154,-3.361898931666667,K4Sn(TeSe)2
mp-863852,,,,,,,
mp-556125,3.8046,-2.2207173004576184,2.2935187670694943,0.0,-163.30236329,-5.832227260357143,Na2BHO3
mp-774810,5.1867,-2.525910491911632,2.7250231429689435,0.0,-331.77981263,-5.92463951125,RbPHO3F
mp-772748,5.2547000000000015,-2.8572340181071434,3.263518580651698,0.0017152785999918765,-359.84964049999996,-7.19699281,Ba2P6O17
mp-776726,1.7065,-3.1217868814996663,3.1846943260716514,0.1162528345000009,-231.48541978,-5.7871354945,LiV2F7
mp-772070,,,,,,,
mp-1019511,5.5569000000000015,-3.105969852470237,1.8162332460765236,0.0250178931249998,-358.21874145,-7.462890446875,AlPO4
mp-24563,5.1672,-2.0738377025190755,3.0387317785644963,0.025766823676470985,-210.96295514,-6.204792798235293,Ga2P3(HO3)3
mp-5737,1.1823000000000006,-1.7099650440624998,6.329607417254263,0.0,-90.07765072,-5.62985317,TbCuS2
mp-580589,5.3478,-2.4939452360422067,3.455804408617184,0.0,-40.13301077,-4.013301077,Cs2NaErCl6
mp-556051,3.0075000000000003,-2.0651489029861114,3.857862746553943,0.0,-380.47763519,-5.284411599861111,Rb2GeO3
mp-34770,0.9686,-1.9172928008630947,6.626616485820662,0.024342673571430492,-114.49284250000001,-8.178060178571428,Sr(GdSe2)2
mp-600033,5.4289,-3.269569018611111,1.6330223520653515,0.00842865055555464,-142.34057189,-7.907809549444446,SiO2
mp-540450,,,,,,,
mp-765230,1.5185,-2.9929134944144447,2.8791592614490735,0.00474018458332548,-71.54815172,-5.962345976666668,LiVOF3
mp-773235,,,,,,,
mp-780897,0.8574,-1.990514088607077,2.6959067145037583,0.2648624496290326,-387.50674295,-6.250108757258063,Li2Mn2P4H6O17
mp-683949,3.6551,-1.2116570934183928,1.9538960194138688,0.0,-298.05608905,-4.65712639140625,AlP3(NCl3)3
mp-24952,,,,,,,
mp-773690,,,,,,,
mp-733653,5.1385000000000005,-2.7653164922094744,2.996208251532304,0.024073643881600937,-256.58802078,-6.752316336315791,CaAl2Si2(H2O5)2
mp-769778,1.3036000000000003,-2.5501593579166664,4.894098953066038,0.056890892777778035,-214.72821798,-5.964672721666667,Ca2In2O5
mp-541041,3.7001,-2.72276380292328,3.8026090134704815,0.0,-516.84619916,-7.178419432777778,NdAg(PO3)4
mp-8062,1.3923000000000003,-0.20449026250000024,3.1704496150588133,0.0011974605000002472,-15.059141,-7.5295705,SiC
mp-570306,2.5487,-0.5988018649999999,4.628862693104951,0.0,-60.31436116,-2.5130983816666665,TlGaI4
mp-559663,2.3098,-2.923544463941482,3.5877974374004715,0.013797790555559077,-84.09885377,-4.672158542777779,SrLiNiF6
mp-565846,,,,,,,
mp-776707,,,,,,,
mp-560120,1.7050999999999998,-1.1852899726063155,2.5191884693217874,0.0,-226.15863361,-5.9515429897368435,Na2Pd(NO3)4
mp-771387,4.0745000000000005,-1.9698813339432883,2.653954696450771,0.2450645942241376,-383.70505018,-6.6156043134482765,Li6Mn2C4SO16
mp-19475,3.1114,-2.8540479464215687,4.196805858394922,0.05439242838233405,-538.17099154,-7.914279287352942,LaCo(BO2)5
mp-763857,,,,,,,
mp-633099,1.6441,-1.8178746935227281,7.954710190427033,0.0137504035511391,-130.79891636,-5.945405289090909,Sb2Pb2O7
mp-559722,0.8528,-0.8291136035392308,6.3166710987166566,0.0,-492.47705625,-4.7353563100961535,Hg3(NO4)2
mp-779173,,,,,,,
mp-9071,1.0361999999999998,-0.5355586176923075,2.6570999115518394,0.0,-87.9782623,-3.3837793192307686,Na8TiAs4
mp-8267,1.707,-1.0587433961892856,1.9531333167233929,0.0,-44.47274278,-4.447274278,KPS3
mp-510661,2.9577,-1.105179369134615,5.507044648450962,0.2655142838942268,-284.90588181,-5.478959265576923,Gd(IO3)3
mp-9625,5.4297,-2.9604128694387764,2.888396603803538,0.0,-186.49862637,-6.6606652275,LiMgPO4
mp-707775,4.8933,-2.336258579544203,2.0992765780739466,0.015488605760872963,-609.01080758,-6.6196826910869575,K2B5H5O11
mp-555349,3.9406,-3.287677574739584,5.26512030170305,0.0,-399.77119183,-8.328566496458334,La2CO5
mp-764595,1.2599000000000002,-2.2593902334722222,2.627604666305116,0.13777095262963002,-235.95199118,-6.554221977222222,Na2V2O5
mp-759786,2.8817000000000004,-3.3407361386979155,3.3621089512632714,0.009717857604167436,-807.009861,-8.40635271875,Na2Ti7O15
mp-17128,5.3085,-2.9366240167898194,3.5665632427105223,0.0,-261.98025969,-7.277229435833334,CsTb(PO3)4
mp-28921,0.38519999999999976,-0.4976026974609371,8.020976540813349,0.0,-48.83567135,-3.052229459375,Tl5Se2Br
mp-684591,3.3432999999999997,-3.3103421170000003,3.4825522072021444,0.1253862127500005,-294.23886921,-7.355971730249999,Al2O3
mp-978099,2.8375000000000004,-2.649519177938775,3.794327409759791,0.2989847277857232,-198.58496609,-7.0923202175,K3Gd(PO4)2
mp-853274,,,,,,,
mp-722246,6.596,-2.023884483016191,1.8159076165944197,0.0,-211.65658818,-5.039442575714285,SiH10(O2F3)2
mp-764834,,,,,,,
mp-33667,1.9742,-2.171000234479167,4.7050350181823966,0.008397891249999567,-44.29138073,-5.53642259125,LiDyS2
mp-565454,,,,,,,
mp-769511,3.0706,-2.3972702071666663,2.7832392742948358,0.013042497749998994,-269.87421233,-6.746855308250001,NaLiV2O6
mp-16596,3.7221,-3.0961136781602567,3.630915399767389,0.0,-532.37713871,-6.825347932179486,K3HoSi2O7
mp-542760,,,,,,,
mp-643727,3.1072,-1.2796767562175004,6.3739037520402055,0.0,-71.81450098,-4.48840631125,HPbBrO
mp-695955,5.1567,-1.4645883324557136,1.884847323925088,0.08371848394624415,-322.88344761,-5.9793231038888885,P3H11N4O9
mp-771977,3.5511,-2.8719964963888884,6.491496398144939,0.0,-86.69641462,-7.224701218333332,TmAsO4
mp-603633,3.7786,-1.9191250317591328,2.5722182208999604,0.010213646964273515,-352.79485615,-6.2999081455357135,SnP4H8N2O13
mp-25092,,,,,,,
mp-672341,2.7458,-3.709019289948571,4.197150383627218,0.004219724999999563,-183.11138337,-6.5396922632142855,UF6
mp-7206,1.5754,-1.537905448055555,5.135282339304809,0.0,-78.80648706,-6.567207255,TcAgO4
mp-29332,0.5192999999999994,-1.2919519089285705,9.289455033785432,0.0,-158.08964819,-5.6460588639285705,Pt(PbO2)2
mp-767987,,,,,,,
mp-764650,,,,,,,
mp-643385,3.7424,-2.0673134235091672,4.216914972652715,0.0,-75.87258457,-4.742036535625,SrHIO
mp-754140,4.1419,-2.3054012297187496,3.7051460784333887,0.011925906500002805,-119.03750707,-5.9518753535,CaSeO3
mp-689940,1.1544,-1.9400095922619047,2.8503937418378844,0.20083611513888755,-157.08129234,-6.5450538475,CoPO4
mp-566830,,,,,,,
mp-764909,0.27390000000000025,-2.522962934119468,3.1781470306010244,1.5094234462135632,-202.37694673,-6.978515404482758,Li5Mn3Cr(PO4)4
mp-766175,4.0389,-2.5401056855230792,3.5824518027781256,0.0,-201.58098266,-6.719366088666666,RbInBP2HO9
mp-38089,0.4925999999999999,-0.93360362929177,2.9762461017678925,0.7467752835869561,-205.45905604,-4.46650121826087,Na10Mn4O9
mp-557911,4.8194,-3.2151558282448147,6.279007716205687,0.021641638981486192,-287.19867029,-5.318493894259259,Al3Pb5F19
mp-13039,4.0215999999999985,-2.5409776134180957,7.196237937746388,0.0,-60.36000522,-8.622857888571428,Tm2C(NO)2
mp-4967,5.5305,-2.5275945389930548,2.813787206648348,0.0010914704166653524,-148.87245957,-6.203019148749998,MgSO4