id,band_gap,formation_energy_per_atom,density,e_above_hull,energy,energy_per_atom,pretty_formula
mp-672254,0,-0.631350363,8.142792303,0,-38.32787929,-4.258653254,CaPdPb
mp-862694,0,-1.02298874,10.56776411,0,-27.79892613,-6.949731533,Al2IrRh
mp-30723,0,-0.138423497,12.32163741,0,-31.07753736,-5.17958956,Th2Hg
mp-867884,2.4742,-1.853848997,4.148769527,0,-166.5248016,-5.947314342,RbBaTaS4
mp-556214,5.6345,-3.044571793,2.634559639,0,-758.6893522,-7.903014085,CaB4O7
mp-973325,0,-0.279031424,2.904660534,0.04799595,-11.15915216,-2.78978804,Li2MgGe
mp-770510,0.8122,-2.069893022,2.572804515,0.039055848,-436.9828268,-5.462285334,Li5MnO4
mp-760798,0.7905,-2.401825866,3.165490375,0.067137408,-136.9303807,-4.279074396,Li2CuF5
mp-11799,0,-0.289043798,7.409740054,0,-22.28005106,-5.570012765,PrNi
mp-15922,0.775,-3.215479877,8.94025601,0,-349.8663571,-10.93332366,Gd2ReO5
mp-28727,1.0769,-1.969170692,5.578073879,0.010843607,-352.8807328,-5.881345547,La4Bi2S9
mp-998610,0,-0.998707051,5.142643431,0.01936653,-13.95071093,-2.790142186,TlAgCl3
mp-21571,0,-1.672922225,4.840353132,0.016993291,-230.6147755,-5.241244897,La4In5S13
mp-865149,0,-0.576895075,10.93448382,0,-34.08508267,-8.521270668,PaAlRu2
mp-560282,2.1777,-1.49619736,2.726458333,0.018876278,-368.8377319,-6.147295532,K2Ba(NO2)4
mp-850365,0,-1.961106605,3.688854132,0.080186143,-225.706266,-6.2696185,Ni5Te(PO4)6
mp-556605,3.6907,-3.815137562,5.778683829,0.022630736,-113.7830601,-9.481921676,ZrO2
mp-672313,0,-0.438932957,7.896160744,0,-122.661689,-5.575531319,Sc6Pb5
mp-12648,0,-0.210069958,2.478861991,0,-83.18709258,-4.378268031,Ti2Be17
mp-542570,1.3778,-0.099103322,4.101587177,0.003952447,-133.3687648,-4.1677739,AsSe
mp-777465,3.6739,-2.509401273,4.385319602,0.038630337,-280.151122,-7.00377805,Li3P3(WO6)2
mp-771911,3.3565,-1.953511306,4.179708412,0.038034812,-323.4773066,-6.220717434,Ni3(PO4)2
mp-21167,0,-0.475868552,7.385247022,0.00306267,-55.18173889,-6.131304321,Ni2P
mp-776363,1.6819,-2.352724714,5.582887399,0.001944952,-391.9202165,-9.798005411,Zr2N2O
mp-30572,0,-0.401023578,11.88891911,0,-48.28439001,-8.047398335,Hf2Ga
mp-555421,3.961,-3.084166114,3.774195408,0,-534.138498,-6.847929462,Na3TmSi2O7
mp-554549,2.5121,-2.75590432,4.245556488,0.014665881,-529.3409308,-6.616761634,CaGeO3
mp-30800,0,-0.359110719,7.028657769,0,-16.77616276,-2.796027127,NdZn2
mp-560777,2.3158,-1.715409326,3.990662772,0.037914024,-301.5657384,-3.967970242,K3Hg3S2Cl5O6
mp-13791,4.7406,-3.359646265,4.132090831,0.001995034,-450.9458918,-7.515764863,BaNaNd(SiO3)3
mp-10796,0.8395,-0.984752273,6.337621716,0,-53.21472853,-4.434560711,HgSeO4
mp-5540,7.117,-3.036751889,3.887118106,0.006765521,-188.8481775,-7.868674061,SrB4O7
mp-868267,0.3818,-2.084407938,4.253746122,0.078881547,-196.4658148,-6.548860492,Li6Mn3Cr2Fe3O16
mp-705680,3.068,-2.866363482,5.238428021,0.042354807,-199.6326623,-7.678179321,La2Mo2O9
mp-770486,0,-1.702519461,5.082128974,0.033363796,-62.75055303,-5.229212753,Li3Ni2SnO6
mp-1001602,0,0.210620854,5.274710269,0.287689309,-90.36387414,-6.951067242,B12W
mp-4259,0,-0.471493923,6.135254849,0,-27.8252455,-5.5650491,Ca(CoGe)2
mp-775225,0,-2.697521022,3.01757301,0.00476969,-259.5621194,-7.634179983,Nb3Ni(PO4)6
mp-18978,0.0237,-2.711232997,5.197339988,0.004978681,-46.73079757,-6.675828224,Sr2MnO4
mp-38,0,0.006714762,6.416110938,0.006714762,-19.10786677,-4.776966693,Pr
mp-34376,1.8691,-1.949445934,6.181690406,0.099878207,-75.34691883,-5.381922774,Tb2CdS4
mp-581114,4.8312,-3.329450056,3.461314255,0,-1068.593888,-7.420790887,Cs2YSi4O10F
mp-761269,0.3613,-2.407382739,3.962310167,0.034228404,-58.35699717,-4.168356941,Li2AgF4
mp-585339,0.0406,-2.237810005,2.92531204,0.016410156,-316.9712242,-6.603567171,LiCu2P5O16
mp-1005831,0,-0.590263979,8.723858479,0,-119.2025664,-5.960128322,Tb2Co3Ge5
mp-756495,2.5556,-1.659841289,2.88901227,0.097917538,-112.9403533,-4.705848056,Li3CuO2
mp-973894,0,-0.310871014,6.627372271,0.011843575,-13.48082481,-3.370206203,LaNdZn2
mp-769582,3.3455,-3.50273307,7.074794839,0,-406.6078338,-8.470996538,Sr5Ta4O15
mp-977575,0,-0.223324025,9.214871003,0,-25.15701552,-6.28925388,MgSbRu2
mp-560966,1.7989,-1.532535274,2.518913799,0,-181.0407311,-4.526018276,K2RuNCl5O
mp-4549,2.9711,-1.369423893,4.221631305,0,-113.9680419,-7.123002618,SrSiN2
mp-865944,0,-0.413205899,11.64777352,0,-31.60416315,-7.901040788,ThSnRu2
mp-561942,3.0344,-1.755872647,4.866750459,0.005532729,-71.3119806,-5.94266505,Cs3TaO8
mp-12889,0,-0.422369719,10.23927111,0,-133.7315384,-7.429529912,ZrU3Sb5
mp-1001015,0.6698,-2.046419407,3.664514725,0.04726016,-84.78041023,-6.055743588,Y2ZnS4
mp-31149,0.3733,-1.09415951,4.786297059,0,-23.32839906,-4.665679812,Ca3BiN
mp-28429,0,-2.318844758,4.156132639,0.096244919,-136.2111945,-5.675466438,Na2PrO3
mp-510593,0,-0.707711026,8.78519243,0,-176.214378,-5.506699311,Dy5CoSb2
mp-554105,0.5693,-0.67722274,4.634009177,0,-60.94056754,-3.808785471,CdAg2GeS4
mp-7433,0.0512,-0.589429266,4.78468807,0,-21.39096201,-3.565160335,NaCuSe
mp-694955,1.8943,-3.458185304,4.734326133,0.048563068,-247.1379181,-8.237930604,NaLi2La3Ti6O18
mp-757305,0.1413,-2.766636702,2.140558665,0.104523249,-457.8911793,-7.154549677,Li2TiP3O10
mp-752943,0.6325,-2.458825135,3.103423092,0.068842957,-93.24447012,-6.216298008,Li4Cu(PO4)2
mp-559151,2.2234,-3.512209513,7.095503079,0,-191.0775446,-8.685342935,BaSrTa2O7
mp-974832,0,0.035207075,3.593550052,0.1383408,-6.61024104,-1.65256026,Rb3Pb
mp-638009,2.3812,-1.062449575,3.794780153,0,-125.6904797,-4.488945702,RbPPbS4
mp-2960,0,-0.733927503,11.6439299,0,-141.0740741,-7.837448562,HfSnRh
mp-644533,0,-0.466366412,8.770390591,0.02774866,-136.3158315,-4.543861051,Yb2Ga10Ru3
mp-768735,3.3889,-1.732331031,4.550836141,0.038741984,-120.9543016,-3.359841711,Ba2SrI6
mp-754435,5.0767,-3.741812809,8.259907133,0.082431956,-79.32456324,-7.932456324,LuAlO3
mp-641367,1.1117,-1.584516548,4.252064371,0.061259002,-78.97025332,-6.580854443,Cr3AuO8
mp-16922,0.2721,-0.846101962,5.506051019,0,-163.6938863,-4.092347158,Ba2Sb3
mp-541415,5.4879,-1.823454555,1.987924899,0,-373.0972754,-5.486724639,KH5S2O9
mp-560658,3.1791,-1.92998697,4.421383755,0,-343.4055776,-5.723426293,Na5Bi2As5O18
mp-10461,2.9256,-2.755748397,5.052121111,0,-132.3792627,-6.017239212,NaSr3SbO6
mp-698313,0.5337,-1.587734681,2.785949383,0.068866607,-263.1995568,-6.266656114,Rb2CuH4(C2O5)2
mp-757669,1.2788,-1.635568713,2.517822814,0.121405095,-241.2416258,-6.701156273,LiCuC2O5
mp-977403,0,-0.060256261,3.702651356,0.007795771,-6.62317879,-1.655794698,Na3Tl
mp-697408,3.4108,-1.129759459,1.483070463,0.02602904,-218.7015277,-5.75530336,H10C2N2O5
mp-556009,4.3811,-1.589325201,3.123705748,0,-258.9864955,-5.17972991,MgTlAs(H6O5)2
mp-657300,1.5876,-0.952049246,2.756345846,0.001107355,-284.9394727,-3.39213658,RhSCl5
mp-763176,0,-2.152490079,4.442456668,0.052592023,-123.1087381,-6.839374341,Mn3(O2F)2
mp-504771,0,-0.724087082,7.336109758,0,-197.9854743,-7.070909796,LaCo8P5
mp-23065,1.8238,-1.247079898,3.738657355,0,-40.67601383,-3.389667819,CsCu2Cl3
mp-772342,1.9733,-2.891302232,6.522264033,0.066874747,-423.1067451,-8.136668175,Y2W2O9
mp-11240,0,-0.85933925,12.7227386,0.026770428,-9.59774403,-4.798872015,DyAu
mp-20231,0,-0.722168123,8.992128998,0.008138378,-43.86227592,-5.48278449,CeInPd2
mp-850257,0.9091,-2.560168663,2.912509336,0.021857068,-370.7683526,-6.866080604,Li3V2P4(HO8)2
mp-8535,0,-1.067614123,9.211045046,0,-87.72908805,-7.310757338,ErSi2Rh3
mp-774586,1.1892,-2.775701697,3.099040279,0,-262.7333521,-7.727451532,Nb3Sb(PO4)6
mp-762412,0.807,-2.081627874,4.010525197,0.036188578,-74.50754039,-6.773412763,Li2Mn3O6
mp-715035,0.7995,-2.435691388,3.829510595,0.05478696,-370.5137582,-7.719036629,VO2
mp-552234,3.1599,-2.244690826,6.127056569,0,-53.77519517,-5.377519517,SrBiBrO2
mp-6428,0.0957,-2.853292083,6.163485529,0,-73.47400257,-7.347400257,Ba2YRuO6
mp-646749,2.4494,-1.853200072,5.732655695,0.090496755,-402.0761683,-6.701269471,Nb2Ni4O9
mp-760533,0,-3.68967892,6.191940708,0.157196196,-128.5996786,-9.185691325,SmZr4O9
mp-20832,0.8193,-0.373562875,5.439162599,0,-21.96114414,-3.137306306,Zn(InTe2)2
mp-35630,0.9727,-1.432810456,6.431800351,0.097642424,-68.9395362,-4.924252586,Pr2CdSe4
mp-27344,6.1876,-0.226027626,0.603395768,0,-363.926007,-4.135522807,Be(BH4)2
mp-862378,0,-0.506286015,8.822525856,0,-28.32231666,-7.080579165,Sc2TcAu
mp-27221,4.3144,-3.9615094,8.516095303,0.00189486,-240.3445623,-9.613782493,Ca2Hf7O16
mp-7421,0.2762,-0.476302436,3.621856621,0,-16.9198204,-2.819970067,KZnAs
mp-554479,3.3373,-3.228799749,4.642989965,0.018046546,-172.3852105,-7.182717104,Ba3BPO7
mp-672227,0,-0.133504409,6.46723804,0.00492797,-40.83621048,-1.458436089,CaZn13
mp-1019315,0,-1.029759253,9.250245719,0.054560838,-34.04446124,-5.674076873,TbSbPd
mp-28950,4.344,-0.807567787,2.540133293,0,-164.9273427,-7.496697397,P4N6O
mp-755450,2.1927,-3.916509225,6.28928636,0.00981791,-188.7766747,-8.58075794,La2Ce2O7
mp-560443,0.551,-0.739276824,6.965862899,0,-156.6963761,-4.352677115,AgHg2NO5
mp-769025,2.9231,-2.272231768,2.651783689,0.027815919,-136.0568261,-4.859172359,K2Mg2O3
mp-864961,0,-0.691035655,11.57567016,0,-21.45811449,-5.364528623,Be2PdPt
mp-32958,0,-1.78662121,6.567671538,0.199333372,-81.0655599,-5.40437066,Sm2F
mp-30792,0,-0.170629334,5.945359766,0,-86.09811398,-2.690566062,NaPb
mp-697670,4.9298,-3.26657745,2.465621763,0,-194.8224348,-7.493170568,KAlSi3O8
mp-23319,0,-1.847843548,2.918944292,0,-46.19301696,-4.619301696,RbVCl3
mp-29259,0.1299,-1.423511013,8.539411989,0,-159.3794787,-5.692124239,Bi2PdO4
mp-7251,3.0536,-3.462096615,5.816469384,,-78.63691833,-7.863691833,Ba2YNbO6
mp-989399,0,-1.00529151,2.272020806,0.009101363,-38.93591255,-3.893591255,Ca6Al2NF
mp-754663,4.268,-2.422846497,2.872202661,0.035351263,-79.54995025,-5.682139304,Na2Be2O3
mp-568346,2.1309,-1.839065112,6.767894658,0,-50.10582023,-8.350970038,HfBrN
mp-11532,0,-0.136605228,7.718560276,0.009445062,-54.666952,-2.102575077,Zn11Ni2
mp-1431,0,-0.465441146,5.964019889,0,-62.06179487,-7.757724359,MnSi
mp-557569,0.0827,-1.799472009,6.445562739,0.000258291,-72.90810166,-6.075675138,SmAsS
mp-883,0.0843,-1.933085959,10.23272295,0,-16.39670589,-8.198352945,HoN
mp-867712,0.9476,-1.998594255,4.01964623,0.004513918,-22.41041229,-3.735068715,LiAgF4
mp-1169,0,-0.269391452,5.222539014,0,-10.97061223,-5.485306115,ScCu
mp-773140,0.3308,-0.942981678,5.224350643,0.070908745,-128.8986823,-5.370778431,Co3NiO8
mp-761021,0.4355,-1.595695737,5.523102849,0.100483951,-105.0237678,-5.251188389,Li3Cu(TeO3)4
mp-9480,4.5011,-3.206182655,2.503635872,0.002243956,-99.26538803,-7.090384859,KAlSiO4
mp-2588,0,-0.157751635,7.541136449,0,-85.28512113,-7.107093428,YCo3
mp-568685,0,-0.953223639,8.807578356,0,-73.73156115,-6.144296763,TmAlRh
mp-977011,1.8336,-1.020722525,4.074307913,0.164202663,-51.66612611,-4.305510509,H3PbCI3NF3
mp-865432,0,-0.618207685,8.891443385,0.028253975,-30.04968241,-7.512420603,Y2NiIr
mp-1018054,0,-1.096534857,19.29951729,0.000133246,-32.51085394,-8.127713485,HfPt3
mp-1018022,0,-1.203928448,5.300564024,0,-24.60954837,-6.152387093,NbInS2
mp-768537,1.5384,-1.361289758,5.661732238,0.010625124,-54.52278642,-3.894484744,Cs3TlO3
mp-767471,1.2902,-0.944326046,2.321882631,0.086595741,-94.96764132,-3.391701476,Li5SbS
mp-941221,4.9993,-0.335469885,1.025632169,0.055358313,-331.1367459,-5.017223423,Li(BH)5
mp-30639,0,-0.068200817,10.08787019,0,-298.6097247,-8.294714576,Th2Fe7
mp-770765,1.4516,-2.20500461,3.130031137,0.018162724,-162.1398766,-6.236149099,Na3MnBAsO7
mp-1016874,0,-1.740122896,9.333757932,0.493391961,-27.10886767,-5.421773534,SiHgO3
mp-19242,0,-2.378705823,6.088304107,0,-138.6176613,-6.930883064,YNiO3
mp-568759,2.7212,-1.532281566,5.119419716,0,-273.5563392,-4.884934629,NaNd4I7N2
mp-672676,0,-0.125329223,15.28924767,0.065630613,-202.3235161,-11.24019534,U(WC)4
mp-697540,3.1785,-1.520641823,2.709754193,0,-100.542717,-5.027135849,K3GeH2NO3
mp-569941,0,-0.867843394,8.77235048,0.003624095,-87.34999752,-5.459374845,Ce3Sb3Au2
mp-772625,1.1459,-2.153199224,3.299319695,0.077957433,-146.8717317,-6.119655488,Na2SnBAsO7
mp-867155,0,-1.230851422,5.338418517,0,-96.61617046,-3.716006556,Sr5Cd2Sb5F
mp-989515,0,-1.084028923,6.49234121,0.042660099,-45.06649577,-9.013299154,LaMoN3
mp-3591,0,-0.706971927,9.936253344,0,-37.01929556,-7.403859112,NdBRh3
mp-753517,0,-1.77862099,7.402705756,0.086546636,-85.89232961,-5.726155307,SrBi5O9
mp-730691,1.9364,-2.381800411,3.77796499,0.01959418,-454.2936675,-6.680789228,CaU2Si2H12O17
mp-865520,0,-0.729280716,8.731270983,0,-20.65552527,-5.163881318,YCdPd2
mp-28155,2.1536,-3.188333952,5.397859219,0.050923366,-713.7151164,-8.921438955,LaNb5O14
mp-551135,0.4919,-2.60270034,4.066482035,0.031809174,-63.93731813,-7.104146459,BaCuB2O5
mp-861943,0,-0.024571282,16.19529506,0.11447553,-49.89459684,-6.236824605,BPt3
mp-865181,0,-2.619186922,7.630031858,0,-40.68855765,-8.13771153,EuGeO3
mp-30858,0,-1.020074037,16.83104392,0.008828733,-30.79830481,-7.699576203,ZrPt3
mp-600220,3.7013,-1.531471954,2.536262387,0.033716918,-468.0096116,-6.158021205,InH6(CO3)3
mp-561045,1.8946,-3.011730731,6.264283777,0,-268.600567,-6.887194024,Ba8Ce3(SbO6)4
mp-504539,3.9028,-3.870784455,8.083441018,0.038186014,-220.2207376,-7.865026341,CaLu2O4
mp-560528,1.442,-3.035678555,3.170278355,0.002973172,-184.4994466,-7.096132563,K2Ce(PO4)2
mp-863737,0,-0.263699925,9.014476714,0,-17.54084339,-4.385210848,Ho3In
mp-2752,0,-0.067266049,10.87802014,0.022766028,-67.76420667,-8.470525834,Nb3Au
mp-753923,2.1913,-2.219670705,5.210445198,0.010307511,-70.96234491,-5.068738922,Cs3HoO3
mp-1001613,0,-0.601750392,9.030744728,0,-17.52007651,-4.380019128,LuGa
mp-623590,2.0139,-2.140408008,3.336929688,0,-289.7193479,-6.584530635,RbV2SeO7
mp-558557,0,-2.459709815,6.769933832,0.030168023,-146.9580194,-6.679909971,BaLa4Cu5O12
mp-754596,2.4654,-2.057657239,4.130703423,0,-41.46132092,-5.182665115,RbGaO2
mp-18984,0,-2.71851511,3.268791188,0.03190662,-155.454904,-7.066131999,Na2ZrNi(P2O7)2
mp-5836,4.8917,-3.849075424,6.534273722,0,-105.6706687,-8.805889058,ThSiO4
mp-697784,0,-2.316498393,2.824270868,0.077215749,-244.0099416,-6.778053933,LiFe2(PO4)3
mp-861979,1.1286,-0.75240379,9.571728862,0,-63.76585668,-6.376585668,Ir2S3
mp-567975,3.8336,-1.443522484,1.754651796,0.013067919,-69.85560894,-4.365975559,AlPNCl5
mp-985281,0,1.876224247,9.509939128,1.876224247,-6.00676845,-3.003384225,CsIr
mp-977354,0,-0.250224429,17.11882779,0.08294295,-39.86779849,-9.966949623,HoTaOs2
mp-763342,1.0137,-2.220361177,4.306281293,0.060853821,-108.2092784,-6.011626575,FeOF
mp-685126,0,-0.211564749,6.047474283,0.156547802,-241.6430894,-4.095645584,Cu39S20
mp-639506,5.6553,-3.275927052,1.804261783,0.013223964,-568.9422889,-7.901976234,SiO2
mp-28485,2.4606,-1.614130439,5.190107753,0.024043909,-145.4487848,-5.59418403,Sb5IO7
mp-9930,0,-0.970730175,9.249905857,0,-46.20976102,-7.701626837,UPSe
mp-561233,0,-2.349770291,7.278111618,0,-257.7231691,-6.782188661,Sm9(SbO)5
mp-12854,0,-0.184679706,5.748812696,0.003566273,-28.14125574,-3.517656968,ZnCu2GeTe4
mp-1009135,0,0.043694684,4.115828477,0.658669395,-14.48165424,-7.24082712,MnP
mp-763447,0.6056,-2.198725838,4.658419407,0.042864358,-155.0004921,-6.458353836,Li5Ti2Co5O12
mp-977576,0,-0.575312063,11.62089543,0.039929969,-14.88641391,-3.721603478,NdZnAu2
mp-28587,4.8099,-1.667323944,2.83407353,0,-289.2683925,-5.165507008,BaH8O5
mp-625832,2.5454,-1.085161786,3.453461883,0.333818233,-111.0333422,-5.0469701,Ba(H2O3)2
mp-867297,0,-0.412456694,8.012572341,0,-28.06604428,-3.508255535,AcIn3
mp-981,6.7528,-4.253588357,4.133835591,0,-17.2859187,-5.7619729,SrF2
mp-542804,0,-0.550470777,7.87055096,0.016796729,-92.93973385,-5.163318547,La5NiPb3
mp-39140,4.0558,-2.981293491,2.246546802,0,-325.2160901,-6.775335211,Na4Al3Si3HO13
mp-6044,4.815,-3.27215717,3.566865543,0,-466.1383035,-7.283410993,Sr6B(PO4)5
mp-983152,0,0.831439514,5.993774027,0.831439514,-29.68403419,-3.710504274,Li3Re
mp-12075,0,-0.433596139,7.82198067,0,-37.07216031,-7.414432062,Tb(FeB)2
mp-862321,0,-0.522212124,8.371518491,0,-19.00094679,-4.750236698,LiAsPd2
mp-989602,0,-0.965567066,9.743987389,0.006948257,-46.05570063,-9.211140126,LaReN3
mp-669358,2.3723,-0.59045439,5.058477287,0.001682608,-62.96637606,-1.908072002,CdI2
mp-560527,5.3907,-3.279249188,1.751719219,0.009901828,-189.7271609,-7.90529837,SiO2
mp-769253,2.0813,-3.371991221,8.083241135,0.04299287,-38.0131737,-7.60263474,Dy2SeO2
mp-579552,3.9331,-3.3005272,5.261898695,0,-799.3794024,-8.326868775,La2CO5
mp-567589,0,-0.419881645,5.246299876,0.009321444,-17.52928002,-4.382320005,DyAl3
mp-766374,3.3375,-2.499800142,5.249650848,0.063735201,-273.814779,-6.519399501,LiSiBiO4
mp-972119,0,-0.427038089,6.901826083,0.009074445,-10.12839885,-2.532099713,SrCaTl2
mp-978625,0,-0.256985899,7.68093433,0.005499044,-14.43192594,-3.607981485,Sm2MgTl
mp-756238,3.9627,-1.670336489,3.895144618,0.022240513,-88.55335606,-3.279753928,Sr2CaI6
mp-14152,3.6276,-3.554565609,6.35686801,,-102.2436924,-8.520307703,SmNbO4
mp-18698,4.562,-2.557759907,4.169487923,0,-300.2644355,-7.506610889,CsPr(CO3)2
mp-686722,2.3972,-1.236675778,1.999969473,0.222978056,-199.2630076,-4.331804512,Na3TlH24(ClO2)6
mp-540809,0,-0.736310229,7.290370094,0,-171.9440896,-8.187813791,Zr2Fe12P7
mp-13203,0,-0.540519507,6.499898188,0,-32.12557058,-5.354261763,ScCuSn
mp-7032,0,-0.964312332,10.70911739,0,-87.35790664,-9.706434071,HfMoP
mp-11098,0,-0.688334759,7.608481542,0,-41.50527619,-3.458773016,YbMgPd
mp-13097,0.3636,-0.41567518,4.312805164,0,-17.01219127,-2.835365212,NaZnAs
mp-28614,0,-0.438071695,13.51092228,0,-56.75554659,-5.675554659,NaBPt3
mp-569853,0.3032,-1.029741024,4.83922308,0,-151.4859314,-4.733935357,CsNb4Br11
mp-862995,0.0052,-0.416656593,9.111260041,0,-115.4823379,-4.81176408,Er8Ga3Co
mp-782647,1.3778,-2.572972242,2.253330674,0.062567078,-443.8217409,-6.934714702,Li2MnP3O10
mp-30967,0,-0.164335881,9.079163456,0,-216.8438368,-5.706416758,Tb12Co7
mp-778274,0,-3.725140165,6.61488882,0.070284058,-469.881398,-8.701507369,Dy5Ti5O17
mp-18851,2.2669,-2.24708807,6.43369874,0.006623937,-173.911472,-7.246311333,NaCr(WO4)2
mp-759704,0.2224,-2.316940227,3.355186359,0.055145331,-274.505699,-6.535849975,Li2Cu2P4O13
mp-504805,0,-0.920593046,4.946876647,0.053053011,-185.5596103,-4.41808596,Cs(Zr3I7)2
mp-569877,0,-0.701109131,8.394611608,0.002822106,-49.4275684,-4.94275684,Dy2InGe2
mp-1018708,0,-0.321602435,9.79968734,0.012721257,-37.3759837,-6.229330617,GdTlZn
mp-997589,3.3008,-3.58967734,6.492390356,0.059555235,-313.422371,-7.835559276,La8Al7InO24
mp-781772,0.3906,-2.181540348,4.102089918,0.063164221,-196.0024687,-7.000088169,Li2Mn3VO8
mp-567513,0,-1.077976049,12.13689252,0,-38.54623014,-7.709246028,Ho(SiIr)2
mp-760062,0,-3.206367166,3.612903916,0.038112505,-442.7735599,-8.199510368,Na3Ti8O16
mp-672238,0,-0.654498418,7.830259221,0,-41.81260322,-5.226575403,CeCuSb2
mp-677703,3.1709,-2.199018806,5.058395005,0.005923501,-608.5736405,-8.007547902,Nd4Si4N7ClO3
mp-776589,3.8302,-2.560814624,2.967296956,0.0555684,-641.7562088,-6.548532743,Li9Sb3P8O29
mp-776260,1.6417,-2.349798373,5.588632962,0.004871292,-391.8031628,-9.795079071,Zr2N2O
mp-12620,0.9158,-3.041402591,6.772435868,0,-37.59870578,-6.266450963,NdSeF
mp-694873,0.4091,-2.389213779,6.387450039,0,-137.4830989,-6.874154943,SrLaNiRuO6
mp-769486,0,-1.952368372,2.719924999,0.042317544,-289.1770773,-6.286458202,Na3Ni2P2(CO7)2
mp-9820,5.1311,-2.790896316,3.595811457,0,-36.39370313,-4.549212891,CsAsF6
mp-559994,1.4182,-2.228986142,5.361755526,0,-400.4378427,-7.150675763,La6S4BrN3
mp-13994,0,-1.593706985,3.870308008,0.000597922,-132.3864392,-6.619321961,Ti3NiS6
mp-30278,0,-0.944731307,6.817971152,0,-77.47469145,-4.842168216,Ce3Ga4Cl
mp-850186,0,-1.88545774,5.146445112,0.092470217,-170.740324,-6.097868713,Li4Mn2Co3Sn3O16
mp-559373,3.4625,-2.043792473,5.735081362,0.006253418,-88.84328809,-6.345949149,Ge4PbO9
mp-762240,4.2134,-2.559303467,2.552916441,0.005057576,-215.4925331,-5.985903696,K2Li2TiO4
mp-21845,0,-0.111982075,10.54023034,0,-24.44218502,-6.110546255,FePd3
mp-7310,5.0299,-3.565918078,5.788105649,0,-98.59927864,-6.162454915,ZrPbF6
mp-775337,0.1949,-1.696506606,5.053387104,0.056332948,-157.0813422,-5.610047934,Li4Fe2Ni3Sn3O16