id,band_gap,formation_energy_per_atom,density,e_above_hull,energy,energy_per_atom,pretty_formula
mp-558708,0.37440000000000007,-2.664863126153845,6.0482588855622685,0.016074889615382837,-182.95812148,-7.036850826153846,Nd2Cu(GeO4)2
mp-998156,1.2739,-1.7519132934560004,2.9311674626684243,0.02271717399999984,-17.49394845,-3.49878969,RbSnCl3
mp-4529,5.2088,-2.381398228803571,2.5313755278061847,0.0,-157.38494895,-5.620891033928571,K2SO4
mp-16033,1.4273000000000007,-3.199800913833333,7.363484100529707,0.0,-37.06900139,-7.413800277999999,Sm2TeO2
mp-705470,0.007700000000000262,-2.371992134384922,3.210479776886742,0.12036147074073877,-498.67885303,-6.926095180972222,Li3Mo4P5O24
mp-764715,1.5901999999999998,-3.0194814684000004,3.621352943059874,0.04139877687499993,-100.60996045,-6.288122528125,V2OF5
mp-662547,2.244,-0.967450278205016,2.1732763832819053,0.0,-123.34323676,-2.803255380909091,PSeCl9
mp-28121,1.8548,-3.3060501750000006,7.051984349181249,0.004360850000001193,-201.7809487,-8.407539529166668,La3ReO8
mp-774288,,,,,,,
mp-555318,3.924,-2.7469534312272725,3.000601086287044,0.0,-140.03504073,-6.3652291240909085,K2Zn(SiO3)2
mp-672644,3.1975,-1.4683732343259996,2.0192614489710476,0.0442936829999967,-116.56693485,-5.8283467425,KNO3
mp-1019784,3.2164,-1.5720070342634997,2.409876911033912,0.22963141125000064,-234.18851929,-5.85471298225,K2SN2O5
mp-542117,3.068,-1.3933195021582039,5.002100402015296,0.0,-155.91221899,-4.8722568434375,Cd3Se3O10
mp-765803,,,,,,,
mp-19198,2.649,-1.8990275205208331,3.7207723211432,0.0024761612500041608,-74.16826932,-6.180689109999999,CoSO4
mp-770237,0.9817,-2.195553458827571,2.705349400572061,0.022580952136356913,-311.60232473,-7.08187101659091,LiMnPCO7
mp-770846,1.6705,-2.6806918794791676,6.5753427335318335,0.0,-151.25892657,-6.30245527375,Ba3Sn2O7
mp-722455,1.9381,-0.6180410208077772,1.899860571818135,0.0063737631249995985,-111.02141712,-4.62589238,RbLi2(H2N)3
mp-559459,2.1723,-1.2898947551077589,3.878841401085585,0.0,-126.02115885,-3.9381612140625,CsInS2
mp-763221,,,,,,,
mp-34022,2.5338,-2.6837614673809527,4.580882937562833,0.0,-85.91015792,-6.136439851428571,Mg2SnO4
mp-769817,,,,,,,
mp-767647,,,,,,,
mp-753958,2.7025,-2.7219660999999995,5.888894483775076,0.09572528333334063,-104.09817755,-8.674848129166667,GdAsO4
mp-557437,2.2305999999999995,-0.9100979368892851,3.244408800016732,0.0,-91.52461124,-4.576230562,KBi(PS3)2
mp-695398,0.7930000000000001,-1.3765505053937828,1.362452816666272,0.1656937536363623,-429.65965777,-4.882496111022728,Na3PH24SO15
mp-766991,,,,,,,
mp-572291,1.0785,-1.650809973202,1.9933064884354776,0.0003917534999993144,-68.33905261,-3.4169526305,K3ClO
mp-767979,,,,,,,
mp-14168,5.8903,-3.0574261253488886,3.1035756284552507,0.0,-85.75689091,-4.764271717222222,K2GeF6
mp-771825,3.1696,-3.872408617656249,7.401547323600138,0.037830609374999824,-276.9499949,-8.654687340625,Er2TiO5
mp-776778,,,,,,,
mp-612740,0.9897,-0.5186194454062502,5.037796281357268,0.0,-111.50519472,-3.716839824,In2Se3
mp-776866,,,,,,,
mp-773561,,,,,,,
mp-759638,4.047700000000001,-4.061277825833334,7.605231554513092,0.0028284056562508653,-345.90309993,-8.64757749825,Y5Tm11O24
mp-763804,,,,,,,
mp-764845,1.8467,-2.988179876914445,3.1683841763634275,0.009473802083324934,-142.98269662,-5.957612359166667,LiVOF3
mp-4199,4.0592999999999995,-1.9370099221428572,2.2848239770840073,0.043422010803571,-143.46596642,-5.123784515,Na2S2O3
mp-29394,0.4992000000000001,-1.7076547153039996,5.657370778991059,0.014466097761903995,-48.42498983,-9.684997966000001,Gd2CCl2
mp-29975,2.7119,-1.323521811315477,1.9460814007271978,0.0,-118.77683905,-4.242029966071429,K3BS3
mp-25101,,,,,,,
mp-4103,1.3646999999999996,-2.5803280392803036,5.67077744922114,0.0,-139.48045678,-6.340020762727272,Sr2Sb2O7
mp-756339,2.45,-3.0140170654629626,7.650487273242909,0.0495185538888796,-129.38712825,-7.188173791666666,Tm2TeO6
mp-554278,2.6786000000000003,-3.5119647349999994,3.6159400033700795,0.0,-107.68911193,-8.974092660833334,TiO2
mp-6599,1.4261000000000001,-0.7314594759218744,4.449125569541225,0.0,-78.49087809,-4.905679880625,KNb(CuSe2)2
mp-34291,5.4052999999999995,-3.781453869623684,4.518219627142801,0.0,-243.1013223,-6.3974032184210525,Zr3InF15
mp-568828,1.0313,-0.3813682495833335,6.802787470420048,0.0,-162.18921245,-2.2526279506944444,Hg6BiSb4Br7
mp-554359,3.7922000000000002,-2.8823654449741385,4.008463647917674,0.0,-413.99897033,-6.899982838833334,Cs2Si3SnO9
mp-985594,2.5114,-1.4828273891666672,3.48618185101979,0.13574030359374945,-102.88714538,-6.43044658625,NaAg(CO2)2
mp-971712,1.3684000000000003,-1.0400490153125,4.353168276399327,0.017907728928571398,-13.27183918,-3.317959795,ZnCdS2
mp-752676,2.5795000000000003,-2.3821711926562497,7.131260369508755,0.0,-111.90716497,-6.994197810625,TiBi2O5
mp-7368,0.36329999999999973,-1.85976474140625,7.543623075479732,0.0,-116.00052728,-5.800026364,Dy2Se3
mp-561547,4.6034,-3.415350511583334,3.8460857571227796,0.03601323749999619,-295.41296698,-7.385324174500001,SrSiO3
mp-571162,1.9126999999999996,-0.9085737071688887,4.157538157415448,0.0,-104.08324032,-5.78240224,Ca3(GaN2)2
mp-772131,0.7917000000000001,-1.725154243,4.515588742709077,0.32695769499999816,-86.90729666,-5.793819777333334,Li3Fe3SbO8
mp-14039,2.0202,-2.6613106208140005,3.4164474441446036,0.0,-46.00793747,-4.600793747,K2NaRhF6
mp-777428,,,,,,,
mp-13056,3.626,-3.51634176825,6.910722683322894,0.00041298000000367097,-81.26913654,-8.126913654,Ba2LaTaO6
mp-9478,4.3465,-3.2989769968750005,3.682564818248962,0.03201956964285557,-216.01840125,-7.714942901785714,BaSi4O9
mp-585383,,,,,,,
mp-11347,7.7513000000000005,-4.4893644871425,7.16353546045245,0.0,-107.4138978,-6.7133686125,TbF3
mp-849394,2.9642999999999997,-2.6942793039310624,2.994187543740746,0.005338675000000848,-221.03595595,-6.9073736234375,Li2MnSiO4
mp-778661,0.29000000000000004,-1.6405038361755944,4.70400638821985,0.0980367393749999,-186.88982611,-5.8403070659375,LiCu5(PO4)2
mp-8154,2.9431000000000003,-3.7856740553409107,5.629835193851146,0.008106921704552406,-194.04838556,-8.820381161818183,La2Ti2O7
mp-771540,,,,,,,
mp-775342,,,,,,,
mp-12673,3.0925,-3.667786855124999,8.919845193083404,0.0,-39.34515612,-7.8690312239999995,Lu2SO2
mp-567205,,,,,,,
mp-25744,,,,,,,
mp-13282,0.7753999999999999,-1.867270518239583,7.073592881297727,0.01097363187500111,-116.13626185,-5.8068130925,Sm(ErSe2)3
mp-754605,4.5008,-3.393488358541666,7.422133336247471,0.0,-56.99031549,-7.12378943625,LiLuO2
mp-753846,2.3585,-2.5248563254761907,5.069251925715364,0.02173213714285893,-84.61946382,-6.0442474157142865,Mg(GaO2)2
mp-867300,1.9902999999999997,-3.145701015694444,6.696301950978991,0.0,-71.41507417,-7.9350082411111105,Rb2Hf2O5
mp-761820,,,,,,,
mp-16610,0.7418000000000005,-0.07424606449999942,12.571104309761475,0.004102345000000618,-293.4274729,-7.3356868225,Ge3Os2
mp-781743,,,,,,,
mp-6134,7.6455,-3.8918408526451853,2.8617382920102923,0.0,-102.40765979,-5.689314432777778,LiCaAlF6
mp-22199,1.2580000000000005,-1.0274516555714288,4.194108118251516,0.000608539374999495,-57.03705971,-4.074075693571428,KIn5S8
mp-32800,2.2732,-2.5562115311249998,6.553833152878905,0.0,-251.53901817,-6.288475454249999,Ac2S3
mp-770527,0.2637999999999998,-1.1415421951362674,4.369299789328185,0.8443748675500418,-178.15078626,-5.938359542,Li2Mn4O9
mp-756173,0.5527,-1.1981222675833336,1.9901649185778414,0.1969528889999994,-87.7741869,-4.3887093450000005,Li5FeS4
mp-762479,,,,,,,
mp-972965,2.8718,-4.1344971796425,7.828157554377396,0.0,-34.87576136,-8.71894034,GdF3
mp-24507,3.9779999999999998,-2.2381437145988343,2.8931391056496003,0.007965528421053136,-873.84155328,-5.74895758736842,Na6Zn3P4H6O19
mp-12924,2.6881,-1.8567021007857143,2.968302290315503,0.002405961428573633,-76.71734176,-5.479810125714286,KLaSiS4
mp-6032,5.4876000000000005,-3.2172879414102558,3.259901826478387,0.0,-406.74044334,-7.821931602692308,SrSi2(BO4)2
mp-989400,5.9026,-3.0978535297140004,3.9864454184130866,0.0,-45.80321717,-4.580321717,Rb2NaGaF6
mp-773370,,,,,,,
mp-565897,,,,,,,
mp-627291,1.5975000000000001,-1.8246076254852628,2.1915292868154523,0.07117889578948322,-237.5273761,-6.250720423684211,V3(H3O5)2
mp-864746,,,,,,,
mp-779859,,,,,,,
mp-769399,3.4624000000000006,-3.405323445234374,7.785211931429599,0.002696948177083769,-301.07515046,-9.408598451875,BaTa4O11
mp-31955,,,,,,,
mp-767748,,,,,,,
mp-14384,3.8221,-3.3148454635156255,5.3295895002061675,0.0,-729.75605952,-7.60162562,Ba3Ho(BO3)3
mp-695582,1.9423999999999997,-3.4902858196833324,4.964027788523573,0.012490727945850821,-406.33739879,-8.1267479758,Na3Sr4La3Ti10O30
mp-540737,3.2062,-2.121854103148303,2.558662331323815,0.34944254406252817,-417.97549547,-6.53086711671875,ZrP2H4O9
mp-505304,,,,,,,
mp-6695,3.5801,-2.807475682808442,4.493655027539565,0.0,-148.50727225,-6.750330556818182,BaCdP2O7
mp-773754,,,,,,,
mp-505381,2.5777,-0.6431794252174994,1.1704179118290021,0.0018883545312515793,-75.05764441,-4.691102775625,NaLi3(H2N)4
mp-761482,,,,,,,
mp-773272,,,,,,,
mp-557724,2.6644,-2.5493646868925,3.951165773151541,0.0,-67.83006725,-4.239379203125,KBiF6
mp-757383,3.096,-2.476133968095238,4.856181160709228,0.07920982988095293,-364.27463632,-6.50490422,LiSiBiO4
mp-21767,2.6294,-2.4245850647569447,6.515769379250449,0.0,-484.79537411,-6.733269084861111,Si2Pb3O7
mp-19750,2.2034,-3.0221322801388886,9.048762440264296,0.016700763333327373,-169.13928177,-9.396626765,BaGd2PtO5
mp-581229,2.7756,-2.9884049727651503,6.445801871349739,0.0,-599.87628433,-9.089034611060606,Gd2Ge2O7
mp-3334,2.6550000000000002,-3.0471516927651523,8.078742528650512,0.0,-160.34606731,-7.288457605,Tm2Sn2O7
mp-767787,,,,,,,
mp-5830,2.5188999999999995,-1.138397589910714,2.4775275479112495,0.0,-107.93171922,-3.854704257857143,Na3AsS3
mp-6491,4.0485,-2.560679992991073,2.963692855223599,0.005235564583330188,-300.63318614,-6.263191377916667,Na2ZnP2O7
mp-778325,1.2005,-2.71261169952381,3.9027413656598626,0.019477168214294238,-211.7117092,-7.5611324714285715,Li2TiV3O8
mp-752579,3.2765000000000004,-3.926078218177082,7.3035094313098945,0.0,-277.92849089,-8.6852653403125,Tm2TiO5
mp-565217,,,,,,,
mp-24041,5.5024,-2.174879808883148,2.480599788982499,0.0,-104.70320946,-5.81684497,MgH2SO5
mp-565791,,,,,,,
mp-625112,1.5663,-1.2288578864306667,4.347820024012719,0.06948033766667017,-151.79132422,-5.0597108073333334,H8PtO6
mp-643579,4.6548,-2.228774020159091,3.164104647331855,0.0,-204.53476025,-4.648517278409091,SbH3OF6
mp-560476,3.2444,-2.369501675,3.6129559097211876,0.0,-201.82822005,-5.606339445833333,Rb3NaTiO4
mp-765748,,,,,,,
mp-561355,2.6486,-1.6736381784927774,1.9553088617339165,0.02195977305556429,-152.79823057,-4.2443952936111105,TiSCl6O
mp-9191,1.4701000000000004,-0.639618638928571,4.202015312249115,0.016353173928571607,-87.89160745,-3.1389859803571425,Na3SbTe3
mp-770877,,,,,,,
mp-684723,0.37399999999999967,-2.3673288804999997,7.892075292358521,0.05257963289063383,-142.50204496,-7.125102248,TiNb2Zn(PbO3)4
mp-778657,,,,,,,
mp-644486,4.8004,-0.2916341187466666,1.266689051071161,0.004654227500027641,-39.12945227,-3.260787689166667,KAlH4
mp-764115,1.1608,-2.270011166875,2.613221814555176,0.08214846750001215,-447.72503076,-7.462083846,V3O7
mp-753548,2.1782,-2.4849549462500007,2.8129231306201863,0.03141806266666869,-177.33458518,-5.911152839333334,Rb6Ti2O7
mp-773069,2.6546000000000003,-3.503600579326924,9.09898622250226,0.03377479499999936,-495.59421356,-9.530657953076924,ErTa3O9
mp-29269,4.3163,-2.8555808137100005,3.644736743964175,0.0,-113.02763203,-4.709484667916667,NaSbF4
mp-685272,1.8478999999999999,-0.7188122253749999,4.74527342479056,0.023642723625000084,-243.98111131,-3.049763891375,InSnBr3
mp-505589,0.0,-2.4144306855092594,5.850014385134636,0.11618627084923183,-61.17875271,-6.79763919,BaYFeCuO5
mp-775265,3.0446,-2.9985240988229886,2.9429037073564257,0.05144571000000031,-306.42251608,-5.892740693846154,Li2Mn3F8
mp-559653,4.773300000000001,-2.6950488069166676,3.2142794283046987,0.009130386249993627,-149.13392902,-7.456696451000001,SrCa(CO3)2
mp-769828,,,,,,,
mp-642996,2.691,-0.48692966485333306,3.6905454796219797,0.0,-87.31534429,-3.968879285909091,Li4H6Os
mp-560711,1.8468999999999998,-2.5362264535333336,5.8925356214885305,0.03548904979999623,-653.80003884,-6.5380003883999995,Sm10S14O
mp-25177,,,,,,,
mp-19359,1.9421999999999997,-1.9323276868750003,4.208426588436105,0.0,-93.07664692,-5.8172904325,NaFeO2
mp-22996,1.387,-0.3181999332812501,5.10896602367265,0.0,-40.41407971,-3.3678399758333337,SbSeI
mp-10555,1.7902999999999998,-0.9762078020233336,6.09515892329449,0.0,-115.62188573,-7.226367858125,Ba2LiReN4
mp-570935,4.3818,-1.2328133883333334,3.3163002480327015,0.0,-11.79711739,-2.9492793475,LiI
mp-571464,1.1251,-0.5223880272872024,3.58922430130768,0.0,-116.96096702,-3.8986989006666666,RbPSe3
mp-775054,,,,,,,
mp-753654,3.0257,-2.3908249928911554,3.437855947058035,0.09138036178570808,-45.03294052,-6.433277217142857,LiSnPO4
mp-27640,3.2539,-1.039217029444444,5.135550823181865,0.0,-155.12466795,-4.309018554166666,Cd(IO3)2
mp-31698,,,,,,,
mp-766058,0.29390000000000027,-0.9863477623809512,4.64387829751096,0.9095402878571424,-237.72777592,-5.660185140952381,Na(Fe2O3)4
mp-769023,4.1259,-2.677222914406863,2.1502495349234123,0.09225976102941047,-342.94463553,-5.043303463676471,Ba2Y7Cl25
mp-777396,0.8696999999999999,-2.055135479834204,4.057557226549306,0.002341534923509414,-378.93572869,-6.766709440892858,Li2Mn3FeO8
mp-555403,2.6211,-2.8615480306139998,3.501656520937873,0.0,-49.07710442,-4.907710442,K3WF6
mp-1672,2.3930999999999996,-2.4832149490625004,2.5654993917590274,0.0,-10.4388825,-5.21944125,CaS
mp-556060,0.33409999999999984,-2.2424557964583336,6.166046882781853,0.09564560599537675,-142.96040746,-5.956683644166667,NdTeBrO3
mp-753955,2.1438,-1.5819511716493337,2.2346888198870345,0.07735792616666615,-174.4089017,-5.813630056666667,K3H8RhC4(ClO6)2
mp-865427,4.0934,-2.796260167086666,2.9304266462821897,0.0,-45.75801773,-6.536859675714285,KSrCO3F
mp-505131,0.2627999999999999,-1.9461020880952387,4.110999599245789,0.06336847607142015,-88.02772437,-6.287694597857143,LiVCuO4
mp-865194,5.395300000000001,-4.144620437975833,9.017004596017008,0.0,-25.31519055,-6.3287976375,TmF3
mp-683902,1.1788999999999998,-0.7335190863694859,4.239804216509335,0.0,-157.45514216,-4.631033592941177,Rb3Nb2AsSe11
mp-556785,4.8746,-2.7580110653142853,3.817637608188795,0.0,-244.26130503,-4.361809018392857,RbTeF5
mp-5141,3.3129,-1.7672131174776784,3.060421508227421,0.0,-70.94702237,-5.067644455,Na2SeO4
mp-764716,,,,,,,
mp-770044,,,,,,,
mp-683891,0.4535,-0.7367499857362076,5.486238322297756,0.008442391199997346,-231.65333992,-4.6330667984,MnSb6(Pb2S7)2
mp-15740,2.8662,-2.140516187051282,4.03228670663059,0.0,-301.26981106,-5.793650212692308,SrZn2(AsO4)2
mp-765493,2.3822,-2.4977215776388895,5.086310883478612,0.0,-223.21504949,-6.20041804138889,Ba2Sb2O5
mp-569129,1.4490000000000003,-0.24357795176711328,5.663101110637443,0.0,-95.29339038,-3.9705579325,TlCuPSe3
mp-707532,3.8628,-1.2747582744813972,2.02959640211386,0.08240426846523174,-343.29353376,-5.04843432,NaH8SeNO6
mp-764941,1.5204999999999997,-2.352525154341085,3.194843711063939,0.05843119328489266,-308.1068229,-7.1652749511627905,Li3Fe8(BO3)8
mp-558797,,,,,,,
mp-766337,3.0648999999999997,-1.7103368728571429,4.043236343502669,0.06565041571428587,-141.53297791,-3.3698328073809525,Ba6CaI14
mp-32506,,,,,,,
mp-758270,0.21109999999999918,-2.8123239833673463,2.9466936862271926,0.07916798710033746,-195.57250528,-6.984732331428572,Li3Ti(PO4)2
mp-9775,0.8077000000000001,-0.8735155505555553,3.712403617411158,0.0,-30.84227691,-3.4269196566666666,NaSrAs
mp-20463,3.4728,-3.0548565677675006,3.6140279959479638,0.0,-38.67420563,-4.83427570375,CaPbF6
mp-558183,0.5432,-0.8300931852310001,2.2085465557696162,0.07333555645733458,-96.53349197,-4.8266745985,MoS2N2Cl5
mp-556735,2.5426,-1.702139849038462,6.772657086632127,0.0,-554.83367987,-5.334939229519231,Rb2Bi4O7
mp-742859,3.1283000000000003,-1.5817539822989957,2.620688318526505,0.16135767506757137,-206.32679427,-5.576399845135135,Fe3P2(HO)16
mp-772687,,,,,,,
mp-567918,0.6159000000000008,-1.4559414301102322,5.089292075698943,0.017245927383719106,-684.76916629,-7.962432166162791,Ba2Nd7Si11N23
mp-686466,2.2197999999999998,-2.205756295217631,4.8751650832135995,0.03953427142434407,-1217.64746759,-8.010838602565789,Pr16Si16N27Cl3O14
mp-19464,3.8301999999999996,-2.396337009423076,4.065890243122434,0.0,-341.1520317,-6.560615994230769,Na5Lu(MoO4)4
mp-555611,2.1868,-0.7102923653691041,4.425813679389303,0.0032190672784055963,-922.52764446,-7.687730370500001,Cs3KRe6C6(S4N3)2
mp-868147,,,,,,,
mp-782706,,,,,,,
mp-642648,5.1341,-1.623239823551905,1.8982049108477577,0.0,-62.46785602,-5.205654668333334,KP(HO)2
mp-32833,0.5492999999999997,-1.6526131012224266,7.675557632281817,0.005177474283089012,-376.17560878,-5.531994246764706,Ho6Se11
mp-690546,2.2497999999999996,-2.5121776427499998,4.953351763965234,0.018468156999999152,-220.85255556,-7.361751852,TiNiO3
mp-865188,5.3052,-1.2388613297310136,1.9661099300486244,0.0,-109.46428737,-4.759316842173913,MgH8(ClO6)2
mp-558396,3.0087,-1.5067514196375997,2.8436674225167353,0.0,-248.21329838,-4.9642659676,Rb2Te(H6O5)2
mp-690012,1.6301,-2.3652542614285714,2.8232650640011245,0.24379944694444866,-176.9100831,-7.3712534625,CrPO4
mp-32485,,,,,,,
mp-721158,5.0738,-1.9833133384827428,2.129463577403747,0.015094747586194224,-662.42776561,-5.7105841862931035,Mg2P2H12O13
mp-997020,0.6517000000000001,-0.49868679018999984,3.093021012069906,0.2696446257500007,-33.90351149,-4.23793893625,CuClO2
mp-4438,2.3338,-2.6795045577500005,5.341380879766678,0.014034984999999445,-128.50510764,-6.4252553820000005,CaSnO3
mp-998350,0.2326999999999999,-1.5597212854062499,5.197960661705895,0.077542492500001,-28.75301232,-5.750602464,BaZrSe3
mp-772396,2.3034,-1.8368521888257576,2.7900976889085003,0.07036246026515158,-138.04594601,-6.2748157277272725,Li2Cr2O7
mp-777219,,,,,,,
mp-1019546,4.8123,-3.6332209297993834,4.030244290395667,0.005179443734567357,-450.34700161,-8.339759289074074,BaY4Si5O17
mp-554412,3.3539999999999996,-2.9565271578869043,3.824444381664029,0.0,-93.10853272,-7.759044393333333,RbTa(PO4)2
mp-7067,0.2208000000000001,-0.5966652149999998,5.528967208902029,0.0,-16.11221049,-3.2224420979999997,Ca(CdAs)2
mp-780790,,,,,,,
mp-851036,,,,,,,
mp-604725,4.7947999999999995,-1.8172711152137901,2.137210461133557,0.0,-269.51197671,-5.3902395342,RbMgP(H6O5)2
mp-743601,2.4913,-2.535755500873017,3.397152650229229,0.14531400750000856,-249.11899396,-6.919972054444445,CaFeSn(PO4)3
mp-763213,,,,,,,
mp-715275,0.5975000000000001,-1.7364945089285726,5.308617441373711,0.1221847596428578,-185.38805823,-6.6210020796428575,Fe3O4
mp-11773,3.6494,-3.46005357425,6.532450540244702,0.0,-154.81409621,-7.7407048105000005,Nd3GaO6
mp-720644,4.8995,-1.3432992172444642,1.5855903238395854,0.0002714557031255893,-355.80523816,-5.55945684625,PH9(NO2)2
mp-554405,2.0715000000000003,-1.1298426820625003,3.9964898329403393,0.01366023485714285,-34.96067918,-3.496067918,ZnS
mp-556434,1.1921,-0.6546171359226193,3.973504576916245,0.0,-89.85925544,-4.492962772,AgBi(PS3)2
mp-560327,2.4734,-2.0409817294418753,3.297182703853189,0.05212197484375025,-201.36139263,-6.2925435196875,Na2Sn2C3(O2F)3
mp-763379,,,,,,,
mp-24193,4.3479,-1.5253732599349998,1.749129022242268,0.0,-229.40002789,-4.779167247708333,NaH3O2
mp-780092,2.0462,-2.7593076701286674,2.835498965993782,0.02124713508333187,-175.40014701,-5.8466715670000005,V6O5F19
mp-4961,1.6488,-1.3569155445,5.687759805245754,0.0,-18.20398369,-3.640796738,Na2HgO2
mp-765150,2.6351999999999998,-2.291839361869047,4.027440573257927,0.07850737874999236,-261.80546644,-6.545136660999999,LiSn4(PO4)3
mp-22906,4.2433,-1.7455168839655173,4.168221206888234,0.040382290000000154,-6.02336268,-3.01168134,CsBr
mp-634326,3.2449,-1.945088190279999,4.99036202235207,0.0,-90.15804112,-5.63487757,GaHO2
mp-29584,0.8856000000000002,-0.40885172957142907,2.125226196674544,0.0,-20.35998688,-2.9085695542857146,K4BeAs2
mp-765722,,,,,,,
mp-781078,0.9395000000000002,-2.5388468350565083,2.9110284302971565,0.07863551722221107,-370.27921943,-6.857022582037037,Li3V2P4(HO8)2