id,band_gap,formation_energy_per_atom,density,e_above_hull,energy,energy_per_atom,pretty_formula
mp-24312,4.9945,-1.528138461,1.88135022,0.002128123,-586.3179222,-5.054464847,Sr(H9O5)2
mp-697084,2.7264,-1.170598592,6.474416662,0,-69.47630956,-4.342269348,HPbIO
mp-5160,0,-2.442747606,3.694403598,0,-67.41836816,-4.815597726,AgBF5
mp-773513,3.9179,-2.752547798,7.576212625,0.047075079,-264.9419912,-7.792411507,Er2(WO4)3
mp-561076,1.1965,-2.485143851,4.990060725,0,-256.8415585,-6.421038963,La3GaS5O
mp-29628,2.0692,-1.251889437,2.555284698,0,-68.97536524,-3.831964736,Na4SnS4
mp-568546,2.0779,-0.737098207,4.317623806,0.004973276,-272.060589,-2.833964469,In5Br7
mp-989631,2.0601,-1.126689022,5.498687755,0,-181.1191851,-9.055959254,LaMoN3
mp-24286,0,-0.653341909,5.543619555,0,-16.98702101,-5.662340337,ZrH2
mp-15549,7.2179,-3.486808777,2.841246974,0,-102.5362661,-5.126813305,K2LiAlF6
mp-20491,0,-0.275937728,7.759240888,0.028609317,-16.98078532,-4.24519633,LaInCu2
mp-779428,3.7468,-3.367472853,5.864647254,0.06452797,-158.1822676,-7.19010307,Sr4HfO6
mp-698654,1.8083,-2.275928813,2.711239998,0,-221.4930478,-6.152584661,NaMgFe(SO4)3
mp-552857,1.3267,-2.292063742,8.372895713,0,-49.1851845,-6.148148063,TbBi2IO4
mp-555074,1.5311,-0.498718947,5.859421284,0.002082133,-51.06814508,-2.837119171,Hg3AsS4Br
mp-758594,0,-0.525501609,6.153224457,0.015327564,-80.08665296,-7.280604815,Li(Fe3P2)2
mp-861941,0,-0.68207135,10.96694672,0,-26.32857004,-6.58214251,Ho2PdRu
mp-19816,0,-0.344430248,7.49090724,0,-26.43569459,-4.405949098,Sm2In
mp-8969,0,-0.481209597,5.477005723,0,-28.84049129,-4.806748548,Mg2Ni3P
mp-864807,0,-0.429943519,10.75546311,0,-24.50334167,-6.125835418,HfZnNi2
mp-754060,1.8332,-1.981989361,4.064373578,0.012109076,-70.36039568,-5.025742549,Li7BiO6
mp-743614,2.6265,-1.528704721,2.507295457,0.02988039,-82.45480335,-5.153425209,MoH2Cl2O3
mp-505400,5.7588,-4.115726022,4.006625605,0,-173.4591544,-6.671505938,BaZr2F10
mp-774387,1.4979,-3.140038579,3.266393604,0.001298446,-199.3638106,-6.23011908,V4OF11
mp-20899,0,-0.442594132,10.21936604,0.055564103,-66.79450174,-5.566208478,UGa3Pd2
mp-695278,2.9983,-3.395457193,6.021447619,0.091397333,-467.7875238,-7.79645873,Ba3La9Mg7Nb5O36
mp-17998,0.8187,-1.814134544,6.525833545,0,-185.2030928,-6.614396173,Ca(RhO2)2
mp-11055,0.7472,-0.298510936,4.330040919,0.005923395,-88.02894993,-2.750904685,CsSn
mp-3733,4.4407,-2.723460765,6.639357102,0,-132.839299,-4.744260677,BeTl2F4
mp-998974,0,-0.359575538,7.963228106,0.146768127,-29.55309646,-7.388274115,TiFeCoAs
mp-30883,0,-0.046100944,6.96715742,0,-43.09586398,-4.788429331,V4Zn5
mp-677056,0,-1.030447816,4.246213054,0.013929244,-97.07575518,-3.59539834,Na2UI6
mp-21207,0,-0.418927369,7.887036773,0,-41.82134461,-5.227668076,LaInNi2
mp-540627,2.7278,-1.816170001,2.286844909,0.019353152,-290.9437141,-5.387846558,K2Ba(SO)12
mp-698611,0.9457,-1.680687798,8.283521242,0.028759301,-451.8680187,-5.868415828,Bi28Mo2O47
mp-765543,0,-1.497579634,6.516422344,0,-334.2250143,-6.553431652,Sr3(RhO2)16
mp-22162,0,-0.586467092,9.566815936,0,-52.30357224,-4.35863102,YbNiSn
mp-981368,0,-0.557622055,12.30178745,0.009035344,-16.01111272,-4.00277818,Zn2PdPt
mp-560812,0.0056,-3.131309028,4.293561494,0,-294.0141092,-8.16705859,KU2(PO4)3
mp-672248,2.6094,-1.420835014,2.416226679,0,-121.8930323,-3.80915726,TaAsPCl13
mp-554905,4.0895,-3.130508173,3.008424267,0.005057407,-376.2360036,-7.235307761,CaZnSi3O8
mp-9273,1.1054,-0.467698181,6.198841613,0,-25.14814574,-3.143518218,K3Sb2Au3
mp-722272,5.0185,-1.16158445,1.567927435,0.001327211,-374.2849639,-6.036854256,Li2H12C3SN6O7
mp-21793,0,-0.98044546,9.256272379,0,-398.4762721,-7.379190225,HoSi3Rh5
mp-756724,0,-3.427298374,8.01004896,0.093415958,-193.1264089,-8.77847313,Lu2Nb2O7
mp-7170,0,-0.741059351,9.375765993,0,-44.13756751,-7.356261252,UTeP
mp-777730,4.0047,-2.672230904,2.735394874,0.065144174,-794.3873517,-7.355438441,Li3BiB8O15
mp-677039,0.7147,-0.73259004,3.069326852,0.005713004,-75.9476524,-4.219314022,Li5TiAs3
mp-568448,0,-1.38456304,4.580621163,0.05311649,-29.26181157,-2.926181157,Cs2AgAuCl6
mp-773982,1.7749,-2.266700705,4.736470526,0.00958698,-89.03904457,-6.359931755,Mg3Fe4O7
mp-1006282,0,-0.051662667,7.469668456,0.017372227,-110.4045574,-5.52022787,Nd7Co3
mp-11649,0.1866,-1.622175897,2.580849883,0,-95.0779849,-4.753899245,Ca3SiO
mp-11573,0,-0.505974343,8.076822388,0,-19.2675529,-9.63377645,TiTc
mp-31072,0,-0.799028609,5.207029494,0,-58.81824799,-6.535360888,Sc6Te2Rh
mp-7610,5.1897,-3.048095493,2.840012248,0,-52.53398197,-6.566747746,Li2CaSiO4
mp-3626,3.4179,-3.675876285,5.234583501,0.008162529,-165.1608093,-8.258040464,SrZrO3
mp-13738,4.316,-2.568343066,3.347342512,0,-368.1361884,-6.573860507,CsCd(PO3)3
mp-448,0,-0.078809331,6.285580358,0,-15.22008519,-7.610042595,CoN
mp-20268,0,-0.710891357,7.962523404,0,-79.32275832,-6.61022986,TiGePd
mp-22286,0,-0.82434113,8.364904831,0,-57.62123757,-4.43240289,Ag5(PbO3)2
mp-558358,5.8194,-2.990104478,2.452232005,0,-540.6775296,-7.95114014,Ca(B3O5)2
mp-556841,0.8731,-2.551357192,5.697457929,0,-390.6577364,-6.510962274,LaTmS3
mp-694876,1.8931,-3.511163116,4.968246204,0.009483609,-486.4855614,-8.10809269,NaSr2LaTi4O12
mp-721896,3.2946,-0.481482588,1.426174102,0.006225616,-181.6225754,-5.675705481,H4CSN2
mp-7181,2.0508,-3.37910115,6.769368603,0,-136.1596385,-8.509977406,CsSr2Ta3O10
mp-867926,0,-0.590706528,8.630367149,0,-17.378941,-4.34473525,LiInPd2
mp-19165,3.6492,-3.14861011,3.231172304,0,-487.9784275,-7.624662929,BaFe(Si2O5)2
mp-11692,0.8267,-0.809853326,4.513615335,0,-85.00892444,-4.722718024,Ba3(SiAs2)2
mp-697283,1.9874,-0.723953627,2.660590511,0,-317.9977693,-5.299962822,H8W(S2N)2
mp-973265,0,0.979360769,1.702503636,0.979360769,-7.96108185,-1.990270463,K3Zr
mp-1521,0,-0.009947554,8.388929108,0,-123.1558565,-6.157792827,Sb7Mo3
mp-541131,0,-0.565729616,7.722427507,0,-71.75148199,-5.125105856,Ce2Sn5
mp-999317,0,0.226252466,15.29981036,0.226252466,-37.43331636,-9.35832909,OsN
mp-27407,3.6699,-3.201288132,2.608869933,0.006485901,-395.6697984,-6.821893077,Ca12Be17O29
mp-559939,5.4349,-3.002664742,3.722037952,0,-260.5066247,-7.236295131,Ba(PO3)2
mp-21659,0,-0.645034684,10.41060739,0.022085907,-297.541035,-8.26502875,Hf3(NbGe2)2
mp-16970,4.4261,-2.918892353,2.404790928,0,-243.7181781,-6.76994939,Na2Si2O5
mp-774461,0,-2.401603579,2.850088515,0.051365357,-245.879577,-7.231752266,TiMn3(PO4)6
mp-30889,0,-2.624299438,8.029735621,0.02531312,-172.2807239,-7.830941997,Ho2Ru2O7
mp-775990,0,-2.290350909,3.598177386,0.024627737,-244.7637664,-6.798993512,Fe3Ni2Sn(PO4)6
mp-973676,0.198,-0.461200555,7.128657855,0.002967218,-9.38102019,-2.345255048,HgS
mp-9274,1.2215,-0.448368365,6.424545623,0,-24.71210166,-3.089012708,Rb3Sb2Au3
mp-558523,3.5308,-2.045143887,4.052758178,0,-105.8791227,-4.411630113,PAuClF3
mp-865307,0,-0.658437623,12.57697449,0.002764797,-24.55322619,-6.138306548,Tm2CuIr
mp-998196,0,-0.872333796,4.562552228,0.013832994,-14.36453806,-2.872907612,RbCuBr3
mp-757418,0,-3.446654666,3.467951963,0.033973687,-431.5957367,-8.80807626,KTi16O32
mp-867826,0,-0.456535463,10.51269778,0,-8.64330161,-2.160825403,DyMgHg2
mp-754092,0,-3.558458718,4.359703278,0.097622905,-178.8048143,-8.940240715,ScTiO3
mp-554805,3.4292,-2.255820441,3.97522954,0,-351.7312354,-5.495800554,Sr3Se3(ClO4)2
mp-865080,0,-0.496859221,9.843935904,0.015071208,-15.8074049,-3.951851225,NaCeAu2
mp-752840,0,-1.672906714,3.326487019,0.083636821,-106.7294238,-4.447059325,Na6SbO5
mp-756195,0,-1.341268041,2.95204886,0.072061682,-133.188042,-6.054001908,Li2(VS2)3
mp-769578,0.2295,-2.133850287,2.513962937,0.091033492,-376.0584299,-6.964044998,Li4V2C4SO16
mp-36921,0,-1.670897851,5.076237361,0.053377218,-95.31607242,-6.808290887,Mn2CuO4
mp-850359,1.4185,-1.928871971,4.57483213,0.026930979,-145.6559159,-6.068996495,Li5Fe5(CoO6)2
mp-984697,0.1373,-3.835419373,9.678103692,0.020820503,-252.3838611,-9.013709325,EuLu2O4
mp-18199,1.2878,-1.564793352,4.994862165,0,-190.3836179,-5.949488058,Sr3TaAs3O
mp-781504,2.5196,-2.622699996,2.861972011,0.054695619,-333.2661766,-6.943045345,Li2CrP2O7
mp-684446,0,-2.472015511,3.313418223,0.100493287,-294.056143,-6.683094159,LiSnP2O7
mp-616512,0,-0.164041664,5.589344988,0.009071898,-137.7693978,-6.88846989,Y3Co2
mp-580631,5.0878,-2.508248251,3.052471159,0,-40.13416749,-4.013416749,Cs2KTbCl6
mp-12631,0,-2.478202027,6.143116321,0,-37.11278593,-7.422557186,SrTcO3
mp-8578,0,-0.668775005,4.588765429,0,-34.31881811,-6.863763622,Sc3InC
mp-1687,0,-0.579289703,8.64932243,0,-28.03749334,-4.672915557,BaPd2
mp-764354,1.652,-2.616740224,3.026958302,0.092769286,-139.225216,-4.972329143,LiMnF5
mp-510529,3.1394,-2.936983008,3.307287975,0.00265545,-300.4425283,-7.511063207,LiCr(SiO3)2
mp-12108,0,-0.55489055,16.53793539,0,-22.85753479,-7.619178263,VPt2
mp-1331,0,-0.339941883,6.972863192,0,-9.31667851,-3.105559503,YCd2
mp-779077,0.8887,-2.307034806,3.553971898,0.018321446,-455.8066663,-6.330648143,Li24TiCr11O36
mp-561256,3.8917,-4.009076208,4.657582087,0.010486773,-129.1735855,-6.458679275,Ba2TiOF6
mp-556878,3.3391,-2.246312008,6.876884001,0,-104.2241665,-6.514010404,BiPPbO5
mp-4368,0,-0.416605848,7.690997619,0,-56.1792205,-4.681601708,SbPdSe
mp-12793,0,-0.347627594,5.497965935,0.041114979,-9.20845394,-4.60422697,NdAl
mp-779522,5.3596,-3.158877087,4.343305107,0.038259951,-291.5147262,-7.671440163,Ho2P4O13
mp-776593,4.4787,-4.00216498,7.321154235,0.063748009,-174.1939054,-8.70969527,LuScO3
mp-10455,0,-0.686741937,5.451987883,0.02226407,-42.09496704,-7.01582784,YTiGe
mp-28127,1.7624,-0.963881702,2.010349798,0,-106.9842706,-3.820866807,Na2S5
mp-30060,0,-0.4614164,9.411463833,0,-83.48408113,-6.421852395,Sn5(BRh3)2
mp-569405,3.6983,-0.156218867,0.811598971,0.011739468,-449.8081682,-4.685501753,B3H5
mp-21536,0,-0.087496742,9.416517715,0,-259.3753439,-9.26340514,Ni2Mo4C
mp-1016836,0,-0.981929535,8.520268983,0.55852081,-30.078411,-6.0156822,ZnOsO3
mp-549158,0.2439,-1.499718225,6.137718631,0.005335514,-42.60570778,-5.325713473,InCuO2
mp-2585,0,-1.001021949,4.483289868,0,-57.6209621,-3.601310131,Sr5Sb3
mp-23193,5.027,-2.248638456,1.893143868,0,-6.86146221,-3.430731105,KCl
mp-985443,0,0.024985358,11.37676245,0.024985358,-8.68976974,-2.172442435,Ag3Hg
mp-768234,4.0102,-3.990514426,6.678123118,0.023098177,-291.454409,-9.10795028,La2HfO5
mp-7895,1.7601,-1.218447312,3.616630952,0,-15.83182457,-3.957956143,Rb2O2
mp-743771,3.4528,-2.834646861,3.531606445,0.008044412,-637.7372032,-7.085968925,Ca8V7ZnBiO28
mp-604245,6.5456,-1.64970202,1.656905988,0.009570434,-303.920276,-5.065337934,BeH8(NF2)2
mp-795,0,-0.197849348,1.854112991,0,-61.83190809,-3.864494256,LiSi
mp-865963,0,-0.228038068,7.406977945,0,-11.50814072,-2.87703518,LiGaAg2
mp-22003,4.0245,-0.381951938,1.798137302,0,-26.72362584,-6.68090646,NaN3
mp-753183,5.3461,-2.061125181,2.21505042,0.036409235,-137.0353066,-5.709804442,CaH4SO6
mp-28787,0,-0.287269326,13.3944801,0,-170.3290839,-5.67763613,Zn2BIr2
mp-6340,5.3684,-3.214609918,3.068100407,0.033586825,-148.022601,-7.401130049,LiAl(SiO3)2
mp-15281,0,-3.303562413,8.143323961,0.049149465,-185.0339948,-8.410636128,Sm3ReO7
mp-31463,0,-0.699518905,9.794558224,0,-161.712838,-5.053526187,Tb5Bi3
mp-23947,2.6053,-0.281248319,3.113348481,0.000262842,-92.0816932,-2.557824811,Cs3MgH5
mp-989551,4.0416,-2.613017001,6.806169982,0,-44.04720014,-4.404720014,LiTl2InF6
mp-569380,0,-1.530503637,5.144219023,0,-46.23635135,-3.853029279,BaCeI4
mp-23505,1.9851,-1.02308028,3.482447509,0.023133056,-24.34489497,-2.70498833,K2TeBr6
mp-11360,0,-0.377746651,6.778373168,0,-19.07277685,-4.768194213,ScGaCu2
mp-554320,0.7153,-1.923120319,4.406965478,0.012353157,-143.8302049,-6.537736586,P2Pd2O7
mp-555259,1.9725,-2.276105753,6.896362277,0,-329.6171559,-6.867024082,UTe2PbO8
mp-567584,0,-0.497395438,11.10290363,0.008905307,-98.17222826,-8.181019022,Hf2Te
mp-6135,0,-2.687691455,7.274608202,0,-69.73210136,-6.973210136,Ba2PrIrO6
mp-27126,1.9223,-1.673703855,2.561019684,0,-61.94350876,-4.764885289,Na2Mn3Cl8
mp-705676,0.5684,-1.194846712,2.440282639,0.482695559,-66.73532914,-5.133486857,K4MoO8
mp-554134,1.5862,-0.725352562,1.282575916,0.050226945,-17.84904221,-4.462260553,SnS
mp-601867,0.8692,-0.764291617,4.51793626,0,-169.2415113,-4.70115309,Ba3(SnP2)2
mp-631442,0,0.647833847,7.140591193,0.967001281,-21.29538234,-5.323845585,V2CuBr
mp-690711,4.2692,-1.976123348,4.501158884,0.003899986,-187.8834576,-5.871358049,TlP(HO2)2
mp-35327,5.0623,-0.053352113,1.239837856,0.402256716,-111.3108106,-7.950772183,Al(CN)3
mp-756817,0,-1.638203181,5.3147393,0.05860307,-128.3248757,-5.34686982,Li5Cu5(SbO6)2
mp-5063,0,-0.657107771,4.984203627,0,-99.63255983,-5.535142213,YAl3Ni2
mp-19482,2.573,-2.645521322,2.846057658,0.006028708,-356.3867832,-6.853591984,Na2V(PO4)2
mp-675195,0,-0.423212686,3.77937568,0.110103383,-128.3686165,-4.754393204,Li13(Mn3As4)2
mp-27180,2.6373,-2.239487726,4.890178814,0,-66.30796826,-5.525664022,NdSBr
mp-983585,0,0.043298476,3.763162298,0.043298476,-12.34394246,-3.085985615,Al3Zn
mp-1020624,5.359,-2.859972062,2.151033306,0.001654511,-327.6866626,-7.44742415,NaBe(BO2)3
mp-13545,0,-2.784352728,5.96541277,0,-41.58654318,-5.198317898,BaIrF6
mp-3385,0,-0.828808933,6.690010594,0,-27.00397062,-5.400794124,Sr(PPd)2
mp-22570,0,-0.065468627,3.540123075,0.013442212,-27.96734372,-1.997667409,Mg5In2
mp-769368,2.0456,-1.515079837,4.10966655,0.001211531,-263.0032927,-4.109426449,Rb4SnO3
mp-31347,0,-0.74868813,7.839959149,0,-56.43673439,-6.270748266,YInRh
mp-560104,3.7969,-2.78143905,5.444297075,0,-247.0790574,-7.721220544,LiTaGeO5
mp-755705,2.3508,-1.593907881,4.33428133,0.027997881,-50.72659252,-3.623328037,SrLaI5
mp-637206,2.5425,-1.501412882,3.537692454,0,-106.6445664,-3.808734515,AlBiSeCl4
mp-557894,5.7183,-3.273520968,1.645014722,0.015630048,-758.3587344,-7.89957015,SiO2
mp-31135,0.8866,0.034840941,4.389663128,0.034840941,-254.5592835,-4.714060806,Si19Te8
mp-771853,0.7108,-2.259671405,4.476249976,0.067511703,-187.387344,-7.807806001,Mn3Nb2Cr3O16
mp-28556,0.7792,-1.454115969,3.238518534,0,-371.6706505,-4.424650601,Na3CuO3
mp-754846,2.0783,-3.834772066,6.604767682,0.048389709,-186.3324733,-8.469657879,Ce2Nd2O7
mp-36165,1.4874,-1.636985762,3.363562451,0,-188.3274636,-4.094075296,Na10Zn4O9
mp-758435,0,-2.342387078,3.312976502,0.071267435,-195.9412485,-6.123164016,Li2CuSiO4
mp-5759,0,-0.108191534,8.101770866,0,-544.8413769,-8.01237319,Tb2Fe14B
mp-22816,0,-0.967559266,9.615339893,0,-77.99930645,-6.499942204,TbGeRh
mp-775492,0.9618,-2.424634376,3.820163481,0.033410014,-404.9686529,-7.231583088,Li2MnV3O8
mp-560404,3.4371,-1.569759177,4.480576434,0,-149.5002776,-5.33929563,InHSeO4
mp-626014,0.9675,-1.034373475,3.190454788,0.062770542,-221.9548616,-4.624059616,H5IO6
mp-776686,2.3929,-2.398062618,3.272044691,0.058088076,-263.7641042,-6.594102606,Li5Fe3Ni2(PO4)6
mp-767145,0,-2.811493887,3.79484339,0.041996757,-198.9766722,-6.861264557,Mg8V5O16
mp-540477,3.885,-2.6253022,2.739329993,0.048821764,-133.5312459,-7.02796031,Li2Mn(PO3)4
mp-642458,0,-0.434036439,8.120412955,0.033317603,-49.44823432,-4.120686193,CeIn4Pd
mp-540789,2.3951,-0.672617018,5.460888518,0.002738645,-17.51488293,-2.919147155,PbI2
mp-6812,4.9459,-3.06218638,3.947426569,0,-187.142751,-6.68366968,KBaPO4
mp-743538,4.0705,-1.6092063,1.611113713,0,-158.1237462,-5.100766006,CrH18(O3F)3
mp-755138,2.6533,-2.895609433,7.255663974,0.014858875,-138.6969866,-6.934849329,NdInO3
mp-555120,0.0127,-2.646647253,3.712551266,0.005009464,-162.3336853,-4.509269036,KGaCuF6
mp-1901,0,-0.902796279,2.190153715,0,-27.22448149,-4.537413582,NaO2
mp-6596,5.0452,-3.178729497,2.626728347,0,-229.2965777,-7.165518053,MgAlPO5
mp-645301,2.6619,-2.457648085,3.800560701,0,-433.8855963,-6.779462442,K2CoP2WO10
mp-9006,1.1317,-2.622708708,8.551790264,0,-34.33624096,-6.867248192,Ho2CF2
mp-730823,0,-1.517920681,1.855546834,0.090798762,-321.7148052,-5.849360094,P6H24N6O19
mp-18677,4.3758,-3.47367814,3.742189895,0,-341.3718882,-8.534297204,PrSc3(BO3)4
mp-23538,0.0492,-1.554704156,2.712300939,0.042640319,-84.42095561,-4.22104778,KFeCl3
mp-12543,0,-0.736406577,9.66528599,0,-55.70929697,-5.570929697,Dy3Pd2
mp-752463,0.9941,-1.92975683,4.942327399,0.04838141,-56.16259408,-9.360432347,NbNO
mp-30442,0,-0.070199474,4.448963728,0,-124.8143099,-4.457653925,NpBe13
mp-977538,0,-0.697977975,10.89765126,0,-23.32602576,-5.83150644,ErZnRh2
mp-622491,2.0074,-1.380847704,7.38034034,0,-280.4039182,-4.834550314,Pb13(Br3O5)2
mp-762250,0.036,-0.598088694,7.008905749,0.060949682,-249.1247834,-6.228119585,Sn2N2O
mp-776141,0.2018,-1.776726392,5.04564348,0.213573937,-165.0373926,-5.894192593,Li4Fe3Co2Sb3O16
mp-624397,1.996,-0.173613281,3.171993674,0.031362367,-164.9781904,-7.499008654,SiC
mp-542782,3.0245,-0.808647327,1.391182967,0.089013259,-415.5119229,-6.110469454,H8C3(NO)3
mp-976598,0,-0.530844965,13.17784228,0.013036683,-32.80363502,-8.200908755,LiHf2Ir
mp-22983,5.557,-2.041910364,1.829212207,0,-91.69176769,-3.82049032,LiAlCl4
mp-19946,0,-0.319128176,7.492702777,0.031042788,-18.69433973,-4.673584933,YInCu2
mp-697263,4.1987,-2.353871137,2.768646218,0.001412003,-103.3551724,-4.697962383,LiAsH2OF6
mp-574,0,-0.248230998,14.93533967,0,-63.13120323,-10.52186721,Ta2Co
mp-24126,3.8859,-2.168110335,3.006286101,0.002780367,-660.0695536,-5.690254772,Sr3Al2(HO)12
mp-850876,2.9193,-2.703799034,2.845314136,0.029803252,-117.6170644,-5.880853221,VOF3
mp-704637,1.8929,-2.975045286,4.529141812,0.040360225,-406.2900806,-8.832393057,Nb12WO33
mp-17770,5.2973,-2.944014711,3.270366288,0,-262.054992,-7.279305333,CsPr(PO3)4
mp-17823,1.8718,-0.776294129,4.219313106,0,-148.4026374,-4.63758242,Tl3B3S10
mp-6964,3.8925,-3.147581271,6.268537392,0,-54.01804336,-6.75225542,NaTbO2
mp-19713,0,-0.295818208,4.443026837,0,-45.86548467,-5.733185584,Sc3In
mp-11454,0,-0.529137437,13.11480986,0,-26.67400988,-8.891336627,Hf2Pd
mp-557090,1.4016,-1.766614195,6.469429367,0,-413.8453932,-3.695048153,Bi2Au5F21
mp-7243,0,-0.659886234,8.748709874,0,-18.91319893,-4.728299733,LiSnPd2
mp-1006352,0,-0.57075265,9.054769286,0,-118.5721259,-5.928606294,Er2Co3Ge5
mp-10244,0,-0.582258975,6.394973223,0,-70.14585234,-6.376895667,Zr3(CuSi)4
mp-761592,0.4245,-1.971711257,4.397242904,0.010340123,-71.43260026,-5.952716688,Li3Fe2CoO6
mp-12807,3.7538,-2.927245829,2.687499486,0.003958899,-100.0810048,-6.255062801,KAlO2
mp-15123,0,-0.200709198,5.667681291,0,-61.1105937,-6.790065967,Th(AlC)4
mp-568137,4.3849,-2.276231992,3.19966927,0.02269024,-41.98658082,-3.498881735,Cs3Mg2Cl7
mp-866141,0.4028,-0.687054103,6.758132476,0,-32.99032267,-8.247580668,TiFe2Si
mp-29828,0,-0.410240905,5.134321346,0.019294207,-59.64699395,-3.313721886,K2Cu2Te5
mp-1018140,0,-0.1448473,4.895243152,0.048128818,-7.67228604,-3.83614302,MgNi
mp-23165,0.9388,-0.261028098,6.014769114,0,-143.8558276,-2.996996408,PtBr3
mp-17578,0,-0.729546983,14.13109353,0,-108.3009156,-6.370642095,Yb4Ge6Ir7
mp-2873,0,-0.621775466,6.137493867,0,-70.8748697,-7.874985522,Ce(CrB3)2
mp-23321,4.5643,-2.96271184,3.314941139,0,-102.1511295,-4.643233158,Sr4Cl6O
mp-3079,3.5465,-3.453250769,7.37252611,0,-302.3334055,-9.447918923,CaTa4O11
mp-454,0,-0.135175267,4.84507738,0,-14.13695246,-2.827390492,NaGa4
mp-5012,5.0765,-2.899982119,2.437928041,0,-78.6408015,-6.553400125,Li2SiO3
mp-763240,1.2663,-2.378186212,2.980444431,0.061477771,-92.24449681,-6.588892629,LiCoSiO4
mp-19834,0,-0.244293441,8.263484089,0,-17.86193987,-4.465484968,CeInCu2
mp-705854,5.119,-1.963299072,1.949173312,0.054329995,-649.2302955,-6.011391625,CaP3H10NO12
mp-6217,4.2342,-3.492402886,3.707503756,0,-342.4066982,-8.560167455,LaSc3(BO3)4
mp-23049,1.3655,-1.7942855,2.625034194,0.012915074,-92.01025604,-4.600512802,KMnCl3
mp-763365,0,-1.955952319,4.696360192,0.053567472,-125.1827886,-6.954599365,Mn3O5F
mp-600078,5.6142,-3.265617484,1.632256781,0.023533531,-852.3,-7.891666667,SiO2
mp-775276,0,-1.24294788,4.494625354,0.060525326,-207.9979454,-5.473630142,Co3(SeO3)4
mp-606703,0,-1.621863707,4.387990127,0.019114039,-219.9879288,-5.789156021,Ce4(GeS4)3
mp-641845,0,-0.559343633,8.79966956,0,-110.7909024,-4.616287599,Yb7In(CoGe3)4
mp-4511,3.0797,-3.609824017,5.70013508,0,-39.81955207,-7.963910414,La2SO2
mp-555443,5.4844,-2.069813101,2.158701097,0.006803112,-489.6523842,-6.120654802,PNF2