id,band_gap,formation_energy_per_atom,density,e_above_hull,energy,energy_per_atom,pretty_formula
mp-6891,4.7627000000000015,-1.9180669258066665,2.7188470300973453,0.0910158827777794,-334.40281723,-6.192644763518517,Sb2RuC6(OF2)6
mp-530303,2.2576,-2.523954821547618,5.0976573677875185,0.0226336410714314,-338.42737106,-6.043345911785713,Mg(GaO2)2
mp-540424,0.2939,-2.418602638193277,2.385596581301629,0.09835778643382563,-242.71484278,-7.138671846470588,Cr(PO3)4
mp-695960,3.2006,-1.5915887465137502,2.854251848626551,0.0021060592187494014,-302.08479978,-4.7200749965625,NaZn(HO)3
mp-556808,3.3773,-2.902300941366666,3.35516869831734,0.0,-789.37622622,-7.8937622622,RbNb(BO3)2
mp-13771,2.3032,-2.4085866302500007,5.49623284961158,0.012610518291669592,-513.42319868,-6.4177899835000005,Sc2Cd3(GeO4)3
mp-34202,0.5267999999999997,-0.23555208200000025,7.468816399123585,0.0,-18.38049596,-3.6760991919999997,Bi2Te3
mp-625272,2.0603,-1.5187233139479994,3.1157915782827104,0.036013229499999966,-142.94328861,-4.764776287,Zn(HO)2
mp-28714,4.2606,-2.159167966195,2.050878122253961,0.0,-196.30924053,-4.0897758443750005,Dy(AlCl4)3
mp-565522,,,,,,,
mp-764955,,,,,,,
mp-18794,1.923,-3.208452174978183,6.644903914709857,0.2566944872500017,-164.73957735,-8.2369788675,Sm2TiMnO6
mp-760502,5.3072,-1.6726670516833335,1.7296654856571247,0.011461668999997343,-89.00499152,-4.450249576,LiH2ClO
mp-771790,,,,,,,
mp-741706,,,,,,,
mp-18334,3.6072,-2.894082158571428,5.440953183895532,0.0,-191.01352196,-6.8219114985714295,NaHoGeO4
mp-22170,1.4436000000000002,-1.9259437335185183,4.81101301288761,0.0,-91.32887288,-5.073826271111113,Li4PbO4
mp-773715,,,,,,,
mp-25002,,,,,,,
mp-554941,4.7982,-2.9195540715140003,3.965025380948101,0.0,-44.67672499,-4.467672499,KRb2BiF6
mp-773536,,,,,,,
mp-560188,1.3967,-1.9064025132142857,5.8934065968782505,0.19143478563244187,-74.8055068,-5.343250485714286,Ba4NaAuO8
mp-18943,2.3082000000000003,-1.8173201381250008,5.835413826446862,0.11701408874999952,-42.59080824,-5.32385103,BaNiO2
mp-540545,3.4722,-1.130562033638345,2.6285965476310698,0.1823773666666657,-282.45478028,-4.707579671333334,MnH8(BrO2)2
mp-18549,6.8163,-3.99494480780188,4.404814776785328,0.008775531538460335,-215.42924738,-5.523826855897435,Ba6Mg7F26
mp-766262,4.7199,-1.1782138903897297,1.4765765734323406,0.005371155878387768,-210.33550007,-5.6847432451351345,H20C3(N2O5)2
mp-558083,2.8895,-3.4056045089492764,3.942498120161389,0.0,-763.50141538,-8.298928428043478,BaLi2Ti6O14
mp-696736,7.0819,-3.4879180748062497,2.727631961398937,0.0,-43.46545507,-5.43318188375,RbBe2F5
mp-764356,,,,,,,
mp-30230,2.4082,-1.3309161502777782,3.05857043353607,0.0,-270.27708872,-3.753848454444445,Rb4SnS4
mp-646633,1.7241,-2.44464525097619,3.6317951013656495,0.006436230999996796,-216.73887863,-7.224629287666668,V2Ni(PO5)2
mp-780292,3.0066,-2.4839655856890808,3.2163248497094603,0.010513520744104277,-344.44600004,-7.175958334166666,Li8Mn5Fe3(BO3)8
mp-765198,,,,,,,
mp-505707,,,,,,,
mp-696123,2.0004,-1.2637903680523803,2.092662943479436,0.03331310940000698,-214.35746568,-4.2871493136000005,Li10Sn(PS6)2
mp-541285,3.6202,-2.476099898333333,6.381445093239175,0.0,-245.83740803,-6.828816889722222,Th(TeO3)2
mp-29816,0.40180000000000016,-0.4658374813333335,8.60601096130605,0.0,-67.15682191,-3.3578410955000004,Ag2HgO2
mp-775435,0.2565999999999997,-2.3988187290664706,3.1680685676359546,0.2864414926874828,-543.08879536,-6.788609941999999,Li3MnV(PO4)3
mp-556340,1.6121999999999996,-2.7646904564759986,7.056899390296137,0.010484570900002764,-176.49798169,-8.8248990845,CaTaNO2
mp-558648,4.6094,-1.8089570734672225,1.9723718993746373,0.08016294208333362,-188.93148453,-5.2480967925,CSCl(OF)3
mp-735541,4.5458,-1.7561719261325917,2.748548303082722,0.0,-527.56474927,-4.884858789537037,NiSn2H12(OF)6
mp-9946,2.0368,-1.1418542373958338,3.9959193395245034,0.0016486795238095375,-42.09695368,-3.5080794733333334,ZnS
mp-561493,,,,,,,
mp-19096,1.5191,-2.937114867142857,5.070618484716434,0.0,-195.1230551,-6.968680539285714,Ba2VO4
mp-754152,2.4936,-2.7686249034166672,7.187689341677442,0.047678941874999665,-73.86522392,-7.386522392000001,YBiO3
mp-696994,4.0781,-2.003792978010675,2.5848648656590885,0.0021752622522672733,-417.32175695,-5.639483202027027,Zr2H16SN3(O2F3)3
mp-767075,,,,,,,
mp-771323,2.9789000000000003,-3.817776357310608,7.053011843200222,0.0,-385.82168274,-8.768674607727274,Tm2Ti2O7
mp-764652,1.2226,-1.9466892843939392,3.220287063111127,0.4660301291591154,-294.51149263,-6.6934430143181824,LiFe2(BO3)2
mp-764212,,,,,,,
mp-1477,0.8057000000000003,-0.36151035833333306,3.628158435157088,0.0,-110.80226572,-4.616761071666667,BaSi2
mp-33107,1.5317,-1.714261983577,2.0506236070666897,0.4390802917499994,-17.72650032,-3.5453000639999996,SF4
mp-777277,0.5236000000000001,-1.8169865314880949,4.138199578955549,0.21878220720238414,-360.96131991,-6.445737855535714,Li2Cr3CuO8
mp-568498,2.4855,-0.9709400637224236,4.580517474170085,0.0,-95.51084824,-8.682804385454546,Sm2(CN2)3
mp-766848,,,,,,,
mp-616718,,,,,,,
mp-765550,,,,,,,
mp-669326,2.3784,-0.5903852874074076,5.0592949850537705,0.0016210509259257933,-51.52839095,-1.908458924074074,CdI2
mp-754659,2.7131000000000003,-2.8545494298137504,4.9070397765169655,0.062080598125000115,-154.24287622,-9.64017976375,Zr3N2O3
mp-720642,5.3518,-2.2398564153820013,1.986964464863901,0.0,-390.50738435,-6.508456405833333,NaB3H4O7
mp-532676,2.9523,-1.7897368526875004,3.3449813394608428,0.01007785123809768,-400.50955244,-5.721565034857143,LiMgAl3(SeO4)6
mp-27428,3.0773,-0.8515519250833327,2.830785583770356,0.03010858104166747,-99.35719565,-4.139883152083333,KBrO4
mp-569943,2.5687,-1.081678616972222,3.808968465750164,0.005834287083333667,-64.46170339,-2.6859043079166667,K2AgI3
mp-554515,3.2647,-1.9036921822489992,1.8282193843417558,0.016087372249994125,-413.51817693,-6.8919696155,KScH4(C2O5)2
mp-766650,,,,,,,
mp-849325,1.9251,-1.0391308438683335,2.4370323378821457,0.0,-90.06618881,-3.7527578670833335,SbH4NCl6
mp-15339,0.6244000000000001,-0.9585678214285716,4.560395880764836,0.0,-60.8249015,-4.344635821428572,Sr3As4
mp-774658,3.2128,-2.406640235034013,3.606048621943318,0.07556511964285129,-270.86188329,-6.449092459285714,LiSnPO4
mp-777047,4.6352,-3.2882799731250003,7.196213693654304,0.070299257499995,-28.02843208,-7.00710802,LiTmO2
mp-626785,3.6782,-1.6099006392900002,2.164813291017573,0.0,-26.85100599,-4.475167665,KHO
mp-567817,0.34670000000000023,-0.4559843624999994,6.835810424305077,0.0,-59.76761259,-4.9806343825,HfGeTe4
mp-643359,2.5307,-0.4896921025104759,2.8037790932202755,0.014743131577381163,-102.82857034,-4.896598587619048,Rb2Sn(H2N)6
mp-780836,,,,,,,
mp-754117,4.839099999999998,-3.003758679863332,4.294973414883035,0.01892417374998789,-60.42435395,-7.55304424375,YHO2
mp-7480,3.6931,-3.1129047399999994,7.349330232070747,0.0,-26.44443449,-6.6111086225,RbLuO2
mp-774397,0.4632000000000001,-1.4287372016476965,4.824292090291892,0.4018543123913032,-265.15586858,-5.764258012608695,Li4Mn2Co5O12
mp-771336,4.4621,-2.521692932358059,2.6174277558384764,0.024049764615384998,-165.35057403,-6.359637462692307,Na3MgPCO7
mp-997510,,,,,,,
mp-566812,,,,,,,
mp-18308,3.7859,-2.715772423626374,3.469445939521113,0.0,-169.23064185,-6.508870840384616,CaZn2(PO4)2
mp-1019526,5.3993,-3.1610790814814806,4.0805472435253485,0.0,-209.95982035,-7.776289642592592,Ba3Si2(B3O8)2
mp-772297,1.1667,-1.8349441642803028,2.672020143143106,0.07227048481060637,-138.00396947,-6.272907703181818,Li2Cr2O7
mp-867745,2.3280000000000003,-0.7866796632019998,4.53155028721931,0.04643087399999768,-66.63806284,-6.6638062840000005,Ge2N2O
mp-770706,0.9829000000000004,-2.161732439508227,2.913019160913002,0.26145997839285595,-156.83643247,-5.6013011596428575,Li6MnAlO6
mp-8943,1.151,-1.5934344259520004,6.56000402401022,0.0,-39.44056075,-3.944056075,PtF4
mp-3759,3.6483,-2.5068153384166663,4.764605892862607,0.06417992000000082,-62.97096129,-6.297096129,MgGeO3
mp-675797,0.6033,-1.830946460238096,5.9465685589155655,0.008977283571417694,-212.94416939,-5.070099271190476,Zn7(SbO6)2
mp-770388,1.6178999999999997,-1.8274804723611109,4.774802856671147,0.07630879694444292,-223.46030715,-6.207230754166668,RbFe3O5
mp-539,1.6980999999999995,-1.0604541668750005,3.436496406960289,0.0,-43.55484055,-4.355484055,Ga2S3
mp-745175,3.1984000000000004,-1.4308684416236368,1.7499583054107517,0.0,-214.46307773,-4.8741608575000015,CrH12(ClO2)3
mp-706400,5.5979,-2.3735976122748568,3.0966351265728433,0.0,-381.09510853,-6.351585142166668,BaP2(HO2)4
mp-14912,2.2307999999999995,-3.180560855048828,5.646204017114258,0.0,-486.7487045,-7.6054485078125,La4Si2Se3O7
mp-561238,,,,,,,
mp-541747,4.5983,-1.9511820360158982,1.933665044214541,0.0,-259.63854807,-4.9930490013461535,MgGeH12(OF)6
mp-766098,2.4673,-2.858461177517007,2.9738850128233683,0.005392982214281972,-264.14490859,-7.546997388285714,LiTi3Sb(PO4)6
mp-769965,0.2027000000000001,-1.8402133873809519,4.239139414224557,0.19555535130952692,-181.13101192,-6.468964711428571,Li2Cr3CuO8
mp-6208,4.9937,-3.4004373440625013,3.024266025664233,0.00032685805555932035,-178.22005211,-7.425835504583333,Ca2BeSi2O7
mp-540405,,,,,,,
mp-25764,,,,,,,
mp-777328,,,,,,,
mp-868327,,,,,,,
mp-775217,1.616,-2.2942867253361348,3.555500117442974,0.00465854941177124,-230.00275163,-6.764786812647059,CoSb3(PO4)6
mp-540363,1.2088,-2.539665366589285,2.9653205687930444,0.0966580824999923,-146.68647968,-7.334323983999998,VP2O7
mp-27133,1.4875999999999996,-0.7341655685119045,4.037435593645227,0.0,-220.77324096,-4.59944252,BiPS4
mp-15751,3.3072000000000004,-3.5467925027864577,5.375042458109786,0.014357013750002425,-126.58088038,-7.91130502375,Ba3Y4O9
mp-755723,0.9284,-2.5573589744318186,9.267156543235114,0.005456571931819809,-148.82127140000003,-6.764603245454547,Er2Pb2O7
mp-26585,3.5194000000000005,-2.5692470207896823,3.3408882972259253,0.022760247950005308,-396.73686361,-6.6122810601666675,Li5Sb2P5O18
mp-10070,3.1968,-2.6361509951998303,3.738944926274751,0.0,-384.43384249,-6.864890044464286,BaAg(PO3)3
mp-868348,,,,,,,
mp-561157,4.4422,-3.3697227816666664,4.2376831463133655,0.02043607714285756,-665.72127872,-7.925253318095237,Sr3Y2(BO3)4
mp-639741,5.6644000000000005,-3.265283209027777,1.4117115864473484,0.012714460138887771,-569.05370927,-7.903523739861112,SiO2
mp-753048,1.8367,-2.7731298963888884,5.430199211945257,0.04454750402777208,-136.52636722,-7.584798178888889,TiSnO4
mp-754144,2.7161,-1.5155551290476192,3.795424137896625,0.07642619892857327,-53.22795343,-3.801996673571428,BaYI5
mp-541761,2.4614000000000003,-1.4162482679167567,2.7753148595988755,0.11131841684120404,-185.26301793,-5.007108592702703,Zn3As2(HO)16
mp-984761,0.6525999999999998,-0.3307515969827586,3.7995351760592575,0.002367608333333049,-8.30847649,-2.0771191225,CsRb2Sb
mp-505403,,,,,,,
mp-768820,3.4604,-2.484767950763889,4.2898977794817945,0.0,-313.05269778,-6.52193120375,Li3Bi(BO3)2
mp-558894,1.9989,-3.0167524398529424,6.275767468508701,0.0,-246.55668575,-7.251667227941176,Ba4Ti2PtO10
mp-759432,0.6515999999999997,-2.3457158932950684,3.0830010058288013,0.06748486374999896,-373.19599533,-6.664214202321429,LiCu(PO3)3
mp-868657,,,,,,,
mp-556820,4.6078,-3.2214595508625,3.885714151536788,0.0,-216.5728585,-6.767901828125,Sm3Si2Cl5O6
mp-761327,,,,,,,
mp-558576,3.7704,-2.5319536003766667,4.276395911886212,0.0,-267.25080793,-5.5677251652083335,ReSb(OF4)2
mp-5637,2.0794,-2.4431766491666664,5.370846622158407,0.0,-84.85191757,-5.303244848125,SrZnO2
mp-18848,3.2644,-2.980374461416666,6.1512269436116895,0.0,-68.86072232,-6.886072231999999,Sr2MgWO6
mp-779853,,,,,,,
mp-19485,0.3819000000000004,-1.8304150318081756,7.079171985295246,1.4014424418421108,-310.8420034,-8.180052721052633,Ba5Gd8Mn4O21
mp-23357,2.2583000000000006,-2.363225725787037,6.301897065264049,0.0,-214.59661657,-5.961017126944443,Sr2Bi2O5
mp-30926,4.4896,-3.0920391246944425,3.6505199029105744,0.0,-491.69814561,-8.194969093500001,LaB5O9
mp-769644,,,,,,,
mp-13634,7.0876,-3.6843136626004847,3.733374677912601,0.0,-98.30070262,-5.461150145555554,Cs2LiAl3F12
mp-766917,,,,,,,
mp-545548,4.9268,-3.361162011428572,4.554593476589893,0.0,-97.00199521,-8.083499600833333,BaHf(PO4)2
mp-703273,3.9748,-3.2983039093806665,4.342176942323757,0.010456858799998692,-238.52046566,-4.7704093132,KBaLiZnF6
mp-5504,4.3838,-2.69279396675,4.099746929209872,0.0,-149.38682756,-7.469341377999999,BaCO3
mp-778037,,,,,,,
mp-557195,1.9568,-3.16502365471875,4.0076984053563685,0.004941342656252346,-514.0410908,-8.03189204375,KCa2Nb3O10
mp-565694,,,,,,,
mp-29456,3.9553,-0.7786631045233333,3.356799213596632,0.009816660000000256,-64.02894479999999,-5.3357454,Rb2IN3
mp-755044,4.0357,-3.7513886185714287,6.095565848273625,0.04812296910714053,-109.02115428,-7.787225305714286,CaTb2O4
mp-23774,2.5836,-0.3609468284386665,1.5749602721566145,0.0,-61.84636966,-3.092318483,K2LiAlH6
mp-699570,0.7856000000000001,-0.8918186584290005,4.588283533679352,0.17126910803125114,-305.2225268,-3.815281585,VTe4Cl4O
mp-780474,2.8421,-2.1228871476036204,3.2522361104482087,0.34852617123017104,-242.28269752,-6.730074931111112,Li3MnFe2(BO3)3
mp-850253,,,,,,,
mp-567917,1.4432,-0.2408067919955357,5.522773341996625,0.0009371973750003092,-323.66542247,-4.045817780875,TlBi(PSe3)2
mp-31964,4.101,-2.4788084556965373,2.5940446344765675,0.18431920097368515,-261.99438351,-6.89458903973684,Li2Mn(PO3)4
mp-554505,5.3326,-2.9291698381825397,3.5547426077970705,0.00911367481481662,-262.03798795,-7.278832998611111,KHo(PO3)4
mp-618075,,,,,,,
mp-764879,1.4480000000000002,-2.96996422152875,3.2999992445574664,0.0,-205.28559967,-6.4151749896875,V4(OF3)3
mp-504565,,,,,,,
mp-781954,0.8126,-2.4915365181346663,4.200927727288026,0.08694073766667021,-171.82052996,-5.727350998666665,Fe5(OF4)2
mp-30102,1.2578,-1.8977545313400004,3.7184603490940185,0.01913598666666649,-93.98955546,-3.9162314775,BaPdCl4
mp-763509,,,,,,,
mp-765105,,,,,,,
mp-776086,3.3912000000000004,-2.7405684487499995,3.825522231377639,0.020900964000005292,-198.34087809,-6.611362603,CaGeO3
mp-541732,5.1491,-3.235317362318889,6.272280915906313,0.0014801049074115724,-288.28739313,-5.338655428333333,Al3Pb5F19
mp-25624,,,,,,,
mp-779415,,,,,,,
mp-721317,0.7686,-1.8211126920121048,2.7985935241446542,0.0002881534169318911,-207.37274979,-5.457177626052633,Na2CuH4(SO5)2
mp-778572,,,,,,,
mp-996966,0.6239,-1.0104197397083334,4.410687128382985,0.02608443374999947,-16.4759379,-4.118984475,KAgO2
mp-707735,1.3088,-1.0779160383064197,3.36740345001292,0.0,-107.24353422,-3.971982748888889,MgH12(I4O3)2
mp-23372,2.712,-1.9384392317045465,8.218648322413156,0.011598118257561294,-133.5998251,-6.072719322727273,Sn2Bi2O7
mp-15217,1.8739,-1.3829801144791665,3.864146691374904,0.0,-83.21434973,-5.200896858125,Rb2TaAgS4
mp-626450,5.671200000000002,-1.9313364852414283,2.0235669355112136,0.013902744999997552,-190.26339841,-5.9457312003125,PH3O4
mp-778629,,,,,,,
mp-19292,1.9838,-1.6623738819444454,5.42855929651228,0.0,-109.97338333,-6.109632407222222,Co(AsO3)2
mp-27453,3.4837,-2.1529510870833337,3.2839494924763817,0.022537069285713862,-73.10676759,-5.221911970714286,Li7SbO6
mp-771642,3.5577999999999994,-1.6408036434259257,4.015482921119078,0.0478874338888895,-117.15884969,-3.254412491388889,Sr2CaI6
mp-774272,,,,,,,
mp-772018,2.6721000000000004,-1.6388442542948716,4.723487401530812,0.04823171807692539,-188.97617615,-3.6341572336538457,Ba3YI9
mp-643749,6.5977,-3.741463338314,2.610411886007862,0.0020317145000001697,-104.31531509999999,-5.2157657550000005,KCaF3
mp-546864,3.9576,-2.472820924846668,4.1518487313267824,0.0,-63.86494092,-9.123562988571429,Y2C(NO)2
mp-541148,1.9806,-2.9986620706111116,4.6800194799740495,0.0,-289.0564663,-8.029346286111112,KUVO6
mp-19478,2.0141,-2.055903467408425,4.40198022699436,0.07118388074786441,-338.33621933,-6.506465756346153,VAg2(PO4)2
mp-776653,,,,,,,
mp-18662,5.028499999999998,-3.6879500019318185,5.807128023543097,0.0,-361.19482941,-8.208973395681818,Ho2Si2O7
mp-567364,,,,,,,
mp-24266,3.0077,-1.1945659427855553,2.3483588402054774,0.0,-147.96157122,-6.1650654675,Ca2BHN2
mp-743592,,,,,,,
mp-762218,,,,,,,
mp-1392,0.7455999999999996,-0.24451984321428635,3.4906712020661463,0.004053222916666321,-102.55673486,-4.273197285833334,ZnP2
mp-764682,,,,,,,
mp-19418,1.9139,-2.364732045,3.756065406507928,0.0077195053124832205,-92.42291557,-7.701909630833334,VCrO4
mp-720802,4.6625,-2.127687549876932,2.7749101873938637,0.0029055443466061703,-513.25517774,-5.832445201590909,Na6HfH8S5O24
mp-760184,2.764,-3.086135571666666,3.3387636458097902,0.035621883333341486,-320.9619777,-7.64195185,Na4Ti5O12
mp-776063,3.0801,-2.321487261801104,3.068461758335049,0.4419958450000037,-448.06868202,-6.223176139166666,Li2MnPO4F
mp-762111,2.0704,-2.272064290029762,3.3445523074433634,0.08580303364583662,-145.46854330000002,-6.061189304166668,Li2CuPO4
mp-556858,4.7341,-1.7490132670017031,1.4506914214436493,0.0,-657.01713127,-6.317472416057693,Al2P3H9(CO3)3
mp-662572,1.2953,-1.528162384238571,4.838948204688127,0.0,-147.51126294,-5.268259390714285,Ta3In2Cl9
mp-776597,0.7094,-2.3390123963492053,2.701606287471708,0.0,-240.22956376,-6.673043437777778,NaCu(PO3)4
mp-24668,6.5186,-2.5364454359827593,3.699817492042287,0.0,-34.24404209,-4.28050526125,CsHF2
mp-765193,2.8395000000000006,-2.250067997644928,4.336349773123199,0.08623481695650792,-604.2132694000001,-6.567535536956521,LiSn10(PO4)7
mp-761314,1.4346,-1.7061520785714284,5.9082801115898445,0.25913537142857024,-77.19545613,-5.513961152142856,Ga2NiO4
mp-684042,4.0073,-2.516999363285715,4.3250505250077005,0.04417472649999521,-262.05486359,-6.55137158975,Li3Bi2(PO4)3
mp-8127,4.0486,-2.279256406984848,2.649226449589384,0.0,-72.81704674,-6.619731521818181,K2Mg(CO3)2
mp-566113,,,,,,,
mp-770146,,,,,,,
mp-28316,1.5223,-0.11261950852083302,1.7012167887251768,0.00559674299107149,-111.33855353,-3.4793297978125,K3LiSi4
mp-755121,1.7449000000000003,-2.2891482814062503,6.935722257874424,0.0930229112499994,-110.41879839,-6.901174899375,TiBi2O5
mp-581795,3.2347999999999995,-2.3194024584558823,6.763855387368518,0.0007926370735260591,-215.68043054,-6.3435420747058835,Er2Te4O11
mp-558231,0.3065000000000002,-2.5247217401388897,7.646756800855732,0.025935778240743446,-117.09269729,-6.505149849444446,Ba3Ho2Cu2PtO10
mp-775398,,,,,,,
mp-763495,,,,,,,
mp-19364,1.8447,-3.116228222638889,7.852236833563337,0.06741827638889131,-262.56497461,-7.293471516944443,BaDy2CoO5
mp-768103,1.9214,-2.3667348145292206,2.4297694786123243,0.039865880227294426,-316.42550439,-7.191488736136364,NaVPCO7
mp-771756,,,,,,,
mp-696878,4.9619,-2.74342281198419,2.6594149403421348,0.0,-94.51363389,-6.300908926,K3CaP2HO8
mp-557543,3.612,-3.1062431990576918,3.777224539147968,0.0,-177.59949708,-6.830749887692307,K3LuSi2O7
mp-566781,,,,,,,
mp-567267,,,,,,,
mp-764788,,,,,,,
mp-938,0.5644999999999998,-0.09497999000000013,5.909652241338503,0.0,-7.95077254,-3.97538627,GeTe
mp-850193,5.367000000000001,-3.5362720504166663,6.6349322120941325,0.03299266166666648,-166.72062468,-8.336031234,HoBO3
mp-375,1.619,-3.6236493034375,6.574682344549466,0.0,-38.52300363,-9.6307509075,UO3
mp-540249,,,,,,,
mp-19677,,,,,,,
mp-17693,3.7032,-2.8179860295508665,3.952218571668458,0.0,-296.55904145,-6.739978214772727,SrCdP2O7
mp-745034,3.8562,-1.3814819969781822,2.603606542828246,0.1299695163636363,-188.49985437,-4.284087599318182,RbFeH4Cl3O2
mp-31014,1.6778,-1.0816956534017863,2.3892933659701447,0.0,-218.00863182,-5.450215795499999,ZrP2S7
mp-866813,2.0265,-1.6613207928571434,3.0601465924662263,0.11344650321428508,-268.09940374,-4.7874893525000015,Ca2SnS4
mp-643394,5.0085,-1.7392667458811113,2.837278205905957,0.02786625842592549,-85.71684663,-4.762047035,NaInH8(NF3)2
mp-772231,,,,,,,
mp-757652,5.1189,-1.2889487943442317,1.7739632085846089,0.002177755000000836,-561.59186119,-5.399921742211538,H13S2N3O8
mp-850868,4.5789,-1.7793963803983333,2.5574322568449426,0.058558262041474414,-398.18943664,-5.530408842222222,NbH8N2O2F5
mp-558085,3.0314,-2.127588016541667,3.3009426760924483,0.0,-130.17063235,-5.423776347916667,KNaGeO3
mp-866097,2.1412,-0.5708334061479995,2.5998765698703394,0.0014984312540002875,-93.57566323,-4.6787831615,CuH6BrN2
mp-762563,,,,,,,