id,band_gap,formation_energy_per_atom,density,e_above_hull,energy,energy_per_atom,pretty_formula
mp-765697,0.9128999999999996,-2.6265515363541665,3.909421276917834,0.04771230281250105,-221.77707901,-6.9305337190625,Li2TiFeO4
mp-762238,,,,,,,
mp-770726,2.3286000000000002,-2.00436421175,2.887364658884788,0.1752230004749995,-421.78850034,-5.27235625425,Li9Al(CoO4)2
mp-31709,,,,,,,
mp-557472,4.8087,-3.0804016649843753,2.5516416569621834,0.0,-453.86884579,-7.09170071546875,K2Be2(SiO3)3
mp-756427,1.3595000000000002,-1.2843128495833338,2.5182749753603564,0.05125491475000388,-80.81740363,-4.0408701815,Li5SbS4
mp-769713,1.8820000000000001,-2.361569224498457,3.1583491445103387,0.05790126287036479,-350.78092037,-6.495942969814815,Na4B4Sb2SO16
mp-775394,,,,,,,
mp-540393,,,,,,,
mp-540784,2.6310000000000002,-3.3416803329166678,3.927662464862761,0.0,-174.70032327,-8.319063012857143,Rb2Ti6O13
mp-867341,0.9098000000000006,-1.176739507607759,6.7634999232679105,0.0,-16.01013727,-4.0025343175,CsAcTe2
mp-558277,2.2823,-2.553485176842105,7.76470014728858,0.007074469868420863,-277.39005605,-7.299738317105263,Ti3(BiO3)4
mp-25495,,,,,,,
mp-560772,5.1343,-3.029409367175925,2.814389327875892,0.0018228211111113168,-260.18233906,-7.227287196111111,Mg2B2O5
mp-766864,,,,,,,
mp-582648,0.9885000000000002,-0.5781836130357141,5.221772431845226,0.0,-125.55590322,-4.484139400714286,RbRe3Br10
mp-774131,,,,,,,
mp-769763,2.7186,-1.770808830881111,2.455683995647234,0.03095409729166665,-233.42264842,-4.862971842083334,Li5Cu(HO2)2
mp-19449,3.0334,-2.1397059457142853,4.2077109361946405,0.0,-83.1587709,-5.939912207142856,NaVCdO4
mp-17043,2.38,-2.0778925034523814,5.373422275485296,0.016323703494898645,-154.58713756,-5.520969198571429,Tm2ZnS4
mp-29222,4.5120000000000005,-3.3877885024999994,3.8019020125238265,0.0,-392.45875163,-7.5472836851923075,Ba2Si3O8
mp-28871,2.0256000000000003,-0.4769204730555556,5.035933597329898,0.002367963055555311,-96.63870301,-2.6844084169444447,In3SnI5
mp-697022,3.4991999999999996,-2.7837168102951857,2.5365155498012966,0.00634993925925631,-345.27196532,-6.3939252837037035,Ca6Si2H6O13
mp-27897,2.3604,-1.5954159378228567,3.330655903900552,0.028866169227997673,-183.89795458,-6.567784092142857,Ba(NO2)2
mp-779920,1.8333000000000002,-2.859377671826924,7.7345614332002866,0.037376650793266464,-482.99758549,-9.288415105576924,Gd2W2O9
mp-18147,4.052899999999999,-2.794969692380953,3.3093810377918627,0.0,-281.4471189,-6.7011218785714295,LiGaSiO4
mp-13798,3.6444,-2.720461105814,3.9645319824083485,0.0,-41.62258568,-4.162258568,K2NaTlF6
mp-541067,2.0622,-0.6694620812199998,5.275218157832406,0.03501572407750064,-77.70112188,-4.8563201175,HgNO2
mp-28856,2.2157999999999998,-0.9740848790972217,5.163260675255903,0.0003307169444446423,-255.70574304,-3.551468653333333,Na7Au5S6
mp-557600,4.6213999999999995,-1.9552044768349994,2.629013346671868,0.0824732256350007,-284.0483875,-5.917674739583333,SbC2N(OF3)2
mp-766288,3.4924000000000004,-1.711223283611111,4.554346548070701,0.03538742416666674,-121.52987335,-3.3758298152777777,Ba2CaI6
mp-23442,3.5099,-1.812558194556,3.132262043110978,0.0,-59.36378252,-2.968189126,KCdCl3
mp-771300,,,,,,,
mp-5079,4.4269,-2.8966894400433336,3.432456874848565,0.0,-226.41388566,-4.71695595125,KSbF4
mp-559489,4.5246,-3.198881077687501,3.1950048675616114,0.0,-358.88604419,-7.4767925872916665,K2ZrSi2O7
mp-20205,0.9219999999999999,-2.244194811342593,7.982013946680563,0.0,-210.81473813,-5.855964948055555,Yb2Cu2O5
mp-556038,4.7251,-2.966043803951612,3.8983256979964667,0.00832074224462609,-473.98489671,-7.644917688870968,Ba3In(BO2)9
mp-566945,,,,,,,
mp-23800,5.4306,-2.0849404051421425,2.196727079469782,0.0,-630.40592298,-5.628624312321429,KHSO4
mp-764146,,,,,,,
mp-673801,6.1416,-4.192041240054616,4.031638079152276,0.13392559884615274,-156.09603748,-6.003693749230769,Ca3NdF9
mp-14607,1.7858999999999998,-2.044107930683333,4.491747774253319,0.018389262666667072,-338.3632151,-5.639386918333333,KSbO3
mp-770296,1.7738000000000005,-3.004908647578125,6.495587665328606,0.09665203734374916,-439.24775126,-6.8632461134375,La4Zn3O9
mp-3848,3.0544000000000002,-2.3657143908035723,4.901297156864485,0.0,-275.16002412,-6.551429145714286,BaGe4O9
mp-760417,0.8507,-1.3918253916071432,3.4196835839455337,0.0,-20.95859763,-2.9940853757142856,Rb4I2O
mp-19068,2.9583,-3.225090552222222,5.900443331930002,0.0,-96.41723951,-8.034769959166667,TmVO4
mp-765103,,,,,,,
mp-553924,0.6941999999999999,-1.2003370434404765,6.266635414593089,0.0,-189.01377385,-4.72534434625,Ag4PIO4
mp-777253,,,,,,,
mp-569892,1.3729,-1.57298009511942,2.464837229144477,0.0,-228.94075036,-4.9769728339130435,Ca9B2(CCl2)4
mp-12171,1.6784000000000003,-1.59201401330303,2.4988691839434667,0.0,-85.50821124,-3.8867368745454542,K6MgO4
mp-767753,3.5081000000000007,-2.9288465647446236,2.7759056219086915,0.08831308645161329,-230.13945244,-7.42385330451613,Li2Fe2Si8O19
mp-4156,3.7502000000000004,-3.0478515186805546,4.032147500541359,0.0,-86.77930371,-7.2316086424999995,Li2ZrO3
mp-769702,0.22369999999999957,-1.9338673783944136,3.9353871574669617,0.026931491111109374,-90.9379478,-6.995226753846154,LiMn4O8
mp-763242,,,,,,,
mp-9392,2.8466000000000005,-3.34164299615942,3.2537164961833924,0.0,-160.18045546,-6.964367628695652,Sr4Al6TeO12
mp-684690,0.5559000000000003,-1.6723120944062493,4.434771943924083,0.03393470300000079,-63.02846623,-6.302846623,Sc2Se3
mp-849375,,,,,,,
mp-690617,0.7898,-2.096883306468007,3.2263757740521295,0.019928946041666507,-152.55424842,-6.3564270175,LiMn3Al2(HO2)6
mp-778713,,,,,,,
mp-775233,,,,,,,
mp-17956,2.1379,-3.6428914117187485,5.516371616095507,0.016346100625000304,-262.64717647,-8.2077242646875,Ca2UO5
mp-625998,4.022,-1.8316189288455558,1.376467377841133,0.019590879999999977,-29.77836354,-4.96306059,LiHO
mp-558323,2.8096,-2.506684081145833,6.525680342292279,0.010035888611113819,-495.72577531,-6.885080212638889,SrBi2B2O7
mp-555477,0.6913,-0.8447728937522214,5.613015657889573,0.06329227416666772,-52.5195447,-4.376628725,Ag2H3IO6
mp-28980,2.0675,-0.9522713097901787,3.782829982280199,0.0,-97.48498729,-3.4816066889285717,K3BiSe3
mp-2131,3.6687999999999996,-0.5179165115638084,2.6156488784572582,0.0,-106.05945992,-7.575675708571429,SrN6
mp-1019967,3.1934999999999993,-1.4809573538222212,4.485313773892293,0.0,-297.18862477,-8.255239576944444,LaSi3N5
mp-22630,1.6689000000000007,-1.8900605325000004,4.609295719819536,0.00766062607142981,-173.99964382,-6.214272993571428,Sc2PbS4
mp-42255,2.7946,-3.201229695335455,4.079602629672637,0.005120632159085758,-171.24473083,-7.783851401363637,NaCaNb2O6F
mp-572271,4.939,-2.590235174092215,4.002054338074053,0.0,-445.28224567,-6.746700691969697,Cs3P7Pb2O21
mp-764360,,,,,,,
mp-764142,1.7765,-2.315565754938148,3.7979609900900906,0.04738348039215534,-450.22592272,-6.620969451764706,Li5MnV3O8
mp-17455,3.6806,-2.405113734203948,2.6251773137267915,0.0,-233.75880226,-6.151547427894737,K7Ta(SO4)6
mp-510710,1.4927000000000001,-0.9823975577119257,3.8227795694936435,0.0,-61.00694663,-3.812934164375,Cs2AgSbS4
mp-3930,0.6128999999999998,-1.522843579593596,3.0350658413795535,0.3800000910714285,-92.75701841,-6.625501315,Sc2MnS4
mp-780826,,,,,,,
mp-31454,0.7083000000000004,-0.3789772916666673,11.288527345811628,0.0,-26.39809785,-8.79936595,TaSbRu
mp-28808,3.3718999999999997,-2.0101535981944445,6.409617566459299,0.0,-526.19716283,-7.308293928194445,TlReO4
mp-561584,3.113,-1.9256911342187495,6.920308688792878,1.3490171134635425,-277.61445011,-8.6754515659375,Gd2GeO5
mp-694722,,,,,,,
mp-6226,3.7391999999999994,-2.361698792035713,3.7229651671423682,0.0,-263.40644395,-6.5851610987499996,NaSn4(PO4)3
mp-753179,1.9705000000000004,-2.2591934446130955,3.1816264192097456,0.09867387906250347,-96.77309534,-6.04831845875,Li2CuPO4
mp-767022,,,,,,,
mp-776137,,,,,,,
mp-554370,2.6221,-1.6696377026594444,1.966946975801467,0.025960248888896587,-76.32710672,-4.240394817777778,TiSCl6O
mp-22903,3.777,-1.50632952625,3.3599679555463595,0.0,-5.51720219,-2.758601095,RbI
mp-619510,1.9907,-0.8267098984913794,4.925722491659188,0.0,-32.6019446,-2.0376215375,CsHg2Br5
mp-768978,5.9222,-2.7965159634926473,3.5166866081526367,0.0,-236.14508869,-6.945443785,Ho2(SO4)3
mp-779995,,,,,,,
mp-17160,2.3175999999999997,-2.9451673714811104,6.208389182673874,0.0,-188.51220732,-5.236450203333333,DyPtF7
mp-565466,,,,,,,
mp-15791,2.0285,-2.188089615729167,4.935685442687232,0.0,-22.17468585,-5.5436714625,LiErS2
mp-795621,0.4171,-1.5414791663636371,2.785847841718605,0.39544884284091,-67.01104752,-6.0919134109090916,Ca2CrO8
mp-23808,4.8372,-2.895723332223079,2.684133327487562,0.0,-219.67081256,-7.322360418666666,KScBP2HO9
mp-778832,0.4807999999999999,-2.4823050911214786,3.1349868131274685,0.03403322947827547,-340.81751825,-7.409076483695651,Li3Mn4(BO3)4
mp-761977,,,,,,,
mp-28653,3.1872000000000007,-3.5203997939423064,8.028737615244955,0.0,-248.63532318,-9.562897045384615,NdTa3O9
mp-779772,,,,,,,
mp-769187,2.5557,-2.4280723761855145,3.56157565886796,0.04200404402778268,-245.99343233,-6.833150898055555,Sn5P6O25
mp-29395,3.4482,-0.9039104270833335,3.433300310837277,0.0,-66.30919063,-2.762882942916667,NaAlI4
mp-555231,3.7852,-2.9012446349714285,5.217240094494685,0.0,-351.28930414,-7.0257860828,Ba3Bi2(PO4)4
mp-765814,,,,,,,
mp-613172,,,,,,,
mp-697913,5.2369,-2.3208139687559393,3.0352297124488063,0.01689556697367589,-253.54859311,-6.672331397631579,HfP2(H3O5)2
mp-761458,,,,,,,
mp-559949,2.7175,-2.28254535310606,4.048493745712126,0.019052858030310205,-270.87661918,-6.156286799545454,Zn3(BO3)2
mp-633897,,,,,,,
mp-561545,3.1136000000000004,-2.2189808697261904,4.4356226213004,0.006068405083328621,-393.16581563,-6.552763593833333,Sn4P2O9
mp-559586,4.8256,-3.1930947024499994,4.074673043557277,0.0,-754.04954117,-7.5404954117,BaNa2Nd2Si4CO15
mp-761169,1.9124,-1.6490682163021053,5.465305009951948,0.0,-378.34499429,-4.978223609078947,Zn2Hg2H2S2O11
mp-29052,2.0591,-0.5505280146428565,6.017342344229052,0.0,-452.53208587,-5.387286736547619,Cd(W3Br7)2
mp-15500,1.432,-1.1158342077447092,3.425914438155891,0.0,-370.78903335,-5.149847685416667,Sr4TiP4
mp-555284,3.6862,-3.355942685138888,5.60139867753764,0.012442179814815546,-127.56694442,-7.087052467777777,Ba2NdAlO5
mp-19627,,,,,,,
mp-851019,,,,,,,
mp-761184,2.5096,-2.0867442881250002,4.680236865369755,0.0,-127.4968125,-5.3123671875000005,Na2SnO3
mp-772107,,,,,,,
mp-28408,1.6951999999999998,-1.501656504556,2.9436605013495893,0.05048587499999879,-90.96341724,-4.548170862,KTcCl3
mp-771645,3.8509999999999995,-1.6616914478703704,3.88434930885996,0.026999629444445006,-117.91081065,-3.2753002958333335,Sr2CaI6
mp-560535,4.161,-2.9178145661715678,2.9001361639790546,0.007867751764705666,-220.4301717,-6.483240344117647,K4Sr(SiO3)3
mp-764339,,,,,,,
mp-4666,1.4261,-0.20153382553571486,3.8695810192724327,0.0,-35.92460092,-4.490575115,CdSiP2
mp-557752,5.5519,-2.078630757096576,3.191295388576818,0.008649523214286248,-78.28241215,-5.591600867857143,CsHSO4
mp-585354,2.5513,-2.37502449780506,3.1711494711504193,1.6470701914702568,-227.77184406,-7.117870126875,LiCr2P3O10
mp-13326,0.49880000000000013,-1.8751958564062499,6.89635982415198,0.0,-58.33112676,-5.833112676,PrLuSe3
mp-19552,,,,,,,
mp-989534,1.2207999999999997,-1.1056113004279993,5.359535362026632,0.022802565999999302,-90.33423062,-9.033423062,LaMoN3
mp-680374,4.6996,-3.1980703843571425,2.5411749307133156,0.0,-1191.56447994,-7.0926457139285715,KAlSiO4
mp-743649,,,,,,,
mp-9318,0.2256999999999998,-1.1106741116718755,4.780797796112411,0.0,-61.8181707,-5.151514225000001,KZrCuSe3
mp-777213,,,,,,,
mp-27398,1.7925,-0.6564501037500001,5.039757402280416,0.0,-60.83885049,-2.53495210375,TlBr2
mp-763465,,,,,,,
mp-18635,0.3096000000000001,-0.7497833422416663,4.315787225097514,0.004122064583333085,-123.84947697,-5.16039487375,Sr6GaN5
mp-973335,2.4463,-0.7846239314799996,3.586587398341023,0.0006044567407714752,-145.47545222,-4.27868977117647,Hg2H6CN3Cl5
mp-4558,4.0941,-2.3052949824074074,3.0375465151767505,0.0,-99.96703952,-5.553724417777778,Li4GeO4
mp-554852,2.9904,-2.196368755395833,5.259344980871129,0.0,-255.53936033,-6.38848400825,Y2Te5O13
mp-754519,1.5462000000000002,-1.806169033627451,5.424840680833705,0.019966594569331697,-103.09298988,-6.0642935223529415,LiNb(TeO4)3
mp-29008,4.684799999999999,-1.536989252888889,3.4580222473479125,0.019874664000000042,-49.20068415,-3.28004561,Li6MgBr8
mp-697558,4.93,-1.1214756651411533,1.9647728843338834,0.0,-290.8706605,-5.593666548076923,SbH12C2N6F5
mp-7238,4.7059999999999995,-3.466757935916667,5.61432110028834,0.007969211999984793,-166.07327975,-8.3036639875,NdBO3
mp-165,0.4626999999999999,0.01149540500000068,2.2823657023478687,0.01149540500000068,-21.647581,-5.41189525,Si
mp-19224,2.2432000000000003,-2.678094242555925,4.152093910603088,0.013310587272727048,-139.34346922,-6.333794055454546,Ca3MnZnO6
mp-15572,0.9449000000000001,-0.8657513940909088,3.0466172268135496,0.0,-83.67586125,-3.8034482386363635,Na3Ca3AlAs4
mp-754158,3.7288000000000006,-2.9630619813749997,4.932220113358875,0.0,-26.22212102,-6.555530255,KNdO2
mp-10161,0.3500000000000001,-0.39049225766666673,3.8168147095727734,0.009801223333333109,-7.67033591,-2.556778636666667,KZnSb
mp-705479,3.2245999999999997,-1.3969167575721428,2.3137937408621965,0.0012487519642858658,-242.95979947,-4.338567847678571,SnH6Cl4O3
mp-720300,3.6193,-0.604545250625,1.5526018318588457,0.05099040377585151,-772.13454304,-5.362045437777778,H4CSN2Cl
mp-3563,2.5991,-3.281113986614582,5.980750915155584,0.0,-192.43179202,-8.017991334166666,Ba5Nb4O15
mp-559551,0.6525999999999996,-0.6185297118014716,6.22973355656021,0.009457065098041006,-294.85762441,-4.336141535441177,Cu4Bi4S9
mp-780634,,,,,,,
mp-756401,2.8348000000000004,-2.5426458366666664,6.496920843930174,0.09529364416667008,-97.50964447,-8.125803705833333,TaAsO4
mp-554260,3.4557,-2.629473749192174,3.4637394082889306,0.0012243820652173554,-215.23021782,-4.678917778695652,SnSb2As2F18
mp-15783,2.2898,-2.1906644981458334,3.829882036577057,0.0,-21.53671915,-5.3841797875,KSmS2
mp-643277,6.5941,-1.8062958054800005,1.8006244892210206,0.0,-139.86160201,-5.379292385,SiH6(NF2)2
mp-752451,0.6311000000000004,-1.0879786735714287,5.963365082911141,0.05046333928571389,-68.11277307,-4.865198076428571,Zn(CuO2)2
mp-775866,1.7757999999999998,-2.3497354929519987,5.584906499289566,0.0009825285000015782,-391.95750855,-9.79893771375,Zr2N2O
mp-765358,2.7798,-3.04797452222,2.942304392701964,0.026156840000001402,-219.82114436,-5.495528609,Li3VOF5
mp-765908,,,,,,,
mp-643387,4.5062,-2.5996338142566664,5.2416257640715855,0.0,-100.17464874,-5.565258263333333,AlH2PbO2F3
mp-766351,3.551,-1.6989368577777775,4.197391363941864,0.04767385000000024,-121.08756202,-3.363543389444444,Ba2CaI6
mp-764312,,,,,,,
mp-565464,,,,,,,
mp-768597,4.1075,-2.792010577566667,2.615238276524112,0.07315778285714547,-129.75526914,-4.634116755,SrLaCl5
mp-17839,3.5517,-1.8070675574062496,2.96377448205763,0.0,-141.79902471,-5.0642508825,K3Na(SeO4)2
mp-775918,1.2144000000000004,-3.050915141976,6.177279283084326,0.03783204956850916,-178.11775512,-8.905887756,LaTiNO2
mp-10517,4.7579,-3.0932807543235934,2.6068945652748674,0.0,-165.62742052,-7.528519114545454,LiScP2O7
mp-703521,4.4612,-1.995593627059841,2.016466563916303,0.018687090104166693,-402.89966124,-5.595828628333333,Na5P3(H3O4)4
mp-505698,4.1274,-1.406626041443333,2.737490404245609,0.0,-298.84273216,-4.820044067096775,SmH18(IO3)3
mp-766301,3.4988,-1.7019851683333331,4.158591120017529,0.044625539444444584,-121.1973012,-3.3665917,Ba2CaI6
mp-1013547,0.35139999999999993,-0.7300363264285714,2.0205511918054264,0.14480202366666628,-20.47514156,-4.095028312,Ca3P2