id,band_gap,formation_energy_per_atom,density,e_above_hull,energy,energy_per_atom,pretty_formula
mp-15438,4.755800000000002,-2.490252184408482,2.7840475785079755,0.0,-437.83583663,-6.84118494734375,ZnP4O11
mp-868260,,,,,,,
mp-616734,,,,,,,
mp-19234,3.9757,-3.3626155733510004,5.813770509314817,0.017207377000000967,-128.98084161,-6.4490420805,Ba2WO3F4
mp-27164,0.9162,-0.3712086911904758,4.1175342188179735,0.0007281951666655572,-191.87090365,-6.395696788333334,FeP4
mp-769333,4.1683,-3.4610609570833315,5.171913341259354,0.0361888806666677,-243.68061815,-8.122687271666667,Ca4Ta2O9
mp-774120,,,,,,,
mp-13718,2.4792,-2.3113168917857143,4.7044843359065585,0.004652700083332739,-473.40486068,-5.9175607585000005,NaCd4(PO4)3
mp-21496,0.7779999999999996,-3.1760432676190478,6.734535295807168,0.014380377321426609,-104.18208744,-7.441577674285715,LiLa4CuO8
mp-13676,0.7218,-2.0705622889285715,6.0227897222583096,0.0,-74.36194878,-6.196829065,TlPO4
mp-557683,2.7859000000000003,-2.2885035294696974,3.981290973853647,0.013094681666673049,-271.13877894,-6.162244975909092,Zn3(BO3)2
mp-763867,,,,,,,
mp-24398,5.4067,-2.234471295045952,2.45092670241893,0.02537521999999281,-297.62182676,-6.200454724166666,AlP(H2O3)2
mp-27396,0.7411999999999999,-0.7645919055066669,3.2213102504871407,0.0,-10.58129947,-3.5270998233333333,NiCl2
mp-776873,1.7746,-2.3397177697499982,4.805081539502338,0.041647321000015225,-317.72544156,-7.943136039,Cr2O3
mp-755790,2.7912,-2.9942327397499997,10.260779573186662,0.014474155312498738,-165.5117377,-8.275586885,HfPbO3
mp-29369,3.595,-2.6701455635280555,3.8966506503128095,0.0,-664.89676505,-4.617338646180556,Sb7F29
mp-770391,,,,,,,
mp-767959,,,,,,,
mp-553974,0.6143000000000001,-3.3818014808429173,4.356117887162226,0.0,-262.57496035,-5.470311673958333,Ba7Fe6CuF34
mp-5193,1.1848000000000003,-2.1720491412083334,3.802340626100968,0.0022330359999900296,-126.06558876,-6.303279438,SrZrS3
mp-560456,1.4253000000000005,-1.1832932119318178,7.995541466845162,0.01938180090909913,-397.0379481,-4.511794864772726,Hg2Te2O7
mp-571011,1.7663000000000002,-0.6750736425862067,4.044456364684324,0.0,-41.46722738,-2.073361369,CsI4
mp-22989,3.7001,-1.3336535932499998,4.15740078451067,0.0,-88.96598577,-4.4482992885,NaIO3
mp-568545,1.379,-0.34114987315476203,5.408854373193012,0.023307614513889074,-176.75007117,-2.454862099583333,Cd4P2I3
mp-18639,4.553600000000001,-3.67436963375,4.928312754063568,0.00966681477274278,-363.42607909,-8.259683615681817,La2Si2O7
mp-764013,0.7321,-1.790833645196079,3.9392461113791577,0.5946903154901966,-207.59045193,-6.105601527352941,Li5V3CrO8
mp-767088,0.5846999999999998,-0.7769644762890628,4.162487727496583,0.00343380515624947,-138.52244484,-4.32882640125,Li3Sb11S18
mp-10289,0.4966999999999997,-0.33314882233333376,2.6581599760152383,0.0,-70.95505554,-7.095505554000001,Ca(BC)2
mp-696969,2.3824,-0.7697273101295232,2.375379167064939,0.00012904250000556058,-71.88292689,-5.1344947778571415,Sr(H2N)2
mp-989595,4.8352,-2.9370716340071032,3.7601696206820105,0.0548282225000003,-43.50217139,-4.350217139,CsRb2InF6
mp-743761,2.5651,-2.071692508588435,3.6146874488226888,0.43033784857143603,-185.84701872,-6.637393525714287,LiFe3SiPO8
mp-29585,0.6099000000000001,-0.4257027531428572,2.501045266482945,0.0,-17.64473396,-2.52067628,K4CdAs2
mp-779813,,,,,,,
mp-644431,1.1294,-0.4586431023290475,4.1991379001931985,0.00893077677083376,-44.11594547,-3.6763287891666665,Cd2P3Cl
mp-560387,4.9022,-3.0027662762836616,3.3363974022519307,0.0,-103.36101149,-6.890734099333332,Cs2Al2P2O9
mp-772685,,,,,,,
mp-541954,3.6173,-2.090889024874873,3.06439356049393,0.0,-436.05686036,-6.4126008876470575,Fe2P2H4O9
mp-763297,,,,,,,
mp-555740,5.5882,-3.245701075416666,2.5224541774633327,0.03229659374999905,-189.21459855,-7.88394160625,SiO2
mp-566676,,,,,,,
mp-772683,,,,,,,
mp-29440,1.5657,-0.3571560660227268,5.021626862848307,0.0,-409.86313817,-4.6575356610227265,CuMo3I7
mp-868322,,,,,,,
mp-767283,,,,,,,
mp-761869,3.0279,-3.281681025217392,5.7959143128350945,0.037878498070657685,-485.70569115,-7.039212915217393,Sr3Li3La5O12
mp-16777,5.2801,-2.9119639825811703,2.9872006108087965,0.0016091678030267784,-310.54253059,-7.057784786136364,NaAlP2O7
mp-554129,1.4972,-1.1451437484322229,2.804350557182288,0.0,-258.65600997,-3.592444582916667,Br3N(O2F5)2
mp-38394,1.5559999999999996,-0.8903468271428571,4.576343508063603,0.008999547142857445,-28.215753999999997,-4.030822,Ba(AlTe2)2
mp-763198,1.1983,-2.364179070753889,3.3252746000391933,0.3608347937499987,-141.26062949,-5.885859562083334,Li2VO2F
mp-766942,1.838,-2.4781227137373127,2.6622318718292064,0.5282246468750005,-152.90573762,-4.778304300625,Li2MnF5
mp-559352,0.2679999999999998,-2.1935971825,7.018145272995268,0.0,-115.46728474,-5.773364237000001,Ba4Na(BiO4)3
mp-709021,3.0706,-2.968531219180909,3.225154682844177,0.0,-659.17502369,-7.490625269204545,CaTi2(HO3)2
mp-565472,,,,,,,
mp-19581,,,,,,,
mp-16863,2.7368,-1.3261532020089293,2.7458411060598733,0.0,-131.42429265,-4.1070091453125,Rb3PS4
mp-754999,3.4170000000000003,-2.7879549347095245,3.0971816411464683,0.07721342571428824,-64.82085557,-4.630061112142856,SrLaCl5
mp-560904,1.3199,-1.4629930280624996,6.79420136995461,0.0,-90.18074756,-4.509037378,CdHg2SO6
mp-625788,4.0057,-2.306634459944285,4.354932216726809,0.0029549442857188524,-87.07730943,-6.21980781642857,La(HO)3
mp-11742,1.3066,-1.4015888569827584,5.198135857300803,0.0,-17.55650287,-4.3891257175,CsNdTe2
mp-721312,4.1589,-1.85242037386,2.2298057087951797,0.0043320157407436,-207.94053757,-5.776126043611112,Na2H2CO4
mp-11121,2.0647,-1.3603459641603806,5.352586254185372,0.0,-50.17156294,-4.180963578333333,CsTbCdSe3
mp-781681,1.0823,-2.417419602309309,2.611158837465223,0.15583104491668553,-251.00892217,-6.972470060277778,LiMn(PO3)4
mp-752413,3.841,-3.6803853742857147,5.726518090541482,0.0038284021428562904,-113.40293947,-8.100209962142857,Ca2HfO4
mp-15179,0.7774999999999999,-2.4519957528750007,5.13538889835645,0.0,-128.96298662,-6.4481493310000015,Pr2S3
mp-626563,3.5779,-1.4427292452007403,1.5829507749661884,0.051118756990741865,-270.49118725,-5.009096060185184,Ca(H8O5)2
mp-628305,0.2896000000000001,-0.4947710765662716,3.879874028970353,0.27248646859374936,-133.26645547,-4.1645767334375,K2MnSnSe4
mp-40374,2.8182,-2.889325864784849,2.922132479591377,0.036012563593759594,-224.66999723,-7.0209374134375,Na6TiMn(SiO3)6
mp-7638,3.3768,-3.2636988597222216,7.889694629330068,0.0,-221.22392952,-9.21766373,LiTa3O8
mp-868014,,,,,,,
mp-504618,,,,,,,
mp-27194,1.7218999999999998,-0.497819987777778,4.9695287107344335,0.0,-25.60131922,-2.844591024444445,SnI2
mp-775811,1.1138999999999997,-1.8799725470238096,4.003210944321623,0.4153737823809447,-180.75218307,-6.455435109642857,LiVFeO4
mp-19038,2.8228,-2.676493832129629,3.9978153559880383,0.0021358739583376973,-264.21052358,-7.339181210555554,SrV2O6
mp-767245,,,,,,,
mp-763317,1.9331,-2.2536022459895837,3.529845248305527,0.050479145312499966,-106.36787193,-6.647991995625,LiVGeO5
mp-763708,,,,,,,
mp-620979,,,,,,,
mp-754300,2.4906,-2.79791814875,8.916443450555937,0.049673124499999055,-70.3908248,-7.03908248,HoBiO3
mp-560119,4.861000000000001,-3.2982566819275005,4.87658382998086,0.004344654583334773,-43.51128983,-5.43891122875,TbCl2F
mp-40251,2.9437000000000006,-3.4482269655833333,7.150100304717923,0.07952140016667109,-80.26591359999999,-8.026591360000001,BaLaMgTaO6
mp-756299,4.2257,-2.7667962462962965,4.541896469984448,0.05693499777777955,-118.95340855,-6.608522697222222,Li4HfO4
mp-752695,3.6748,-1.6201572240740745,3.9068077237028365,0.04663302333333652,-88.24162839,-3.268208458888889,SrCa2I6
mp-756448,1.9829,-1.3080150979761906,4.557511916412754,0.017857689642855945,-93.23621613,-3.3298648617857145,LaMgI5
mp-768159,3.0135,-2.2674938344534636,3.042971807345322,0.049091215227269565,-150.40672795,-6.836669452272727,LiSnPCO7
mp-17704,4.5969,-3.839129823177084,7.359751241627452,0.0035572175781251048,-265.25949351,-8.2893591721875,Tm2SiO5
mp-776466,2.1394,-3.1954245208814287,4.5561972772177,0.0274274416338276,-180.91943817,-8.615211341428571,Ba2Ti6N2O11
mp-28716,0.6898999999999997,-1.6003688704342858,2.4221826112534104,0.20695732523809607,-56.99095896,-4.070782782857143,Na2CrCl4
mp-560570,7.004199999999999,-3.7608700009996654,3.0355137725626022,0.0,-168.40439897,-5.6134799656666665,Rb2NaAl6F21
mp-565246,,,,,,,
mp-755659,4.5221,-3.031337274655,6.5792546989214875,0.0012138175000027118,-113.85281415,-7.115800884375,DyHO2
mp-636380,1.3428999999999998,-1.9908061095238108,4.815707707763037,0.100297922857143,-94.91299555,-6.779499682142857,Li(MoO2)2
mp-761476,,,,,,,
mp-568224,0.7026000000000003,-1.4362663164062497,6.697683196162636,0.013961043250001914,-214.36154452,-5.359038613,Sm3CuSe6
mp-780098,0.3744000000000005,-1.8799726802380956,5.314358797438804,0.05080197964285471,-82.55601253,-5.896858037857142,LiCoSnO4
mp-12490,1.5502000000000002,-1.076422041321839,5.6309494075755335,0.0,-44.54489812,-3.712074843333333,CsHoCdTe3
mp-675244,2.0484,-2.490577616309525,6.243294555481198,0.0014700075000000368,-84.80376895,-6.057412067857142,Yb(NdS2)2
mp-767407,0.7834000000000003,-0.9375502648511908,2.5295498989853598,0.09392665392857102,-94.83782229,-3.3870650817857144,Li5SbS
mp-23018,2.4146,-1.8522287441666665,7.980126209921313,0.0,-72.22290061,-6.018575050833332,BiSbO4
mp-27336,0.3785,-0.931586716586207,4.3547636226111655,0.0,-58.25328898,-2.9126644489999998,CsCuBr3
mp-672972,2.3453,-2.443918646497253,2.8622401033768066,0.05136931999999117,-360.85633675,-6.939544937500001,Sn(PO3)3
mp-762628,,,,,,,
mp-706588,3.6925,-2.6674976340476184,3.676303640312955,0.013247943095236359,-568.89489115,-6.772558227976191,Na3NdV2O8
mp-743178,3.7971,-1.2536762170319993,1.8538249688220505,0.1528494500000006,-139.89939483,-4.6633131610000005,FeH8(ClO2)2
mp-8723,4.6000999999999985,-2.415223419325,2.7871329535628284,0.0,-52.50519849,-4.3754332075,AsF5
mp-695308,2.6115000000000004,-3.429956588650793,5.372184554357575,0.013339403055564249,-609.66602012,-8.467583612777778,CaGdTh(PO4)3
mp-762398,,,,,,,
mp-675813,2.8666,-4.1387735291369045,8.622273399705238,0.05832225937500012,-127.83075833,-9.130768452142854,Sm2Th3O9
mp-686653,3.9503,-3.3035382863785308,2.4908383080110954,0.02812835818643133,-437.77139675,-7.419854182203389,KMg4Al9(SiO4)9
mp-561185,1.6112,-0.8757898040574711,4.711528303373691,0.0,-51.60704776,-3.4404698506666667,Cs2Sn2Hg3S8
mp-763906,,,,,,,
mp-850899,0.4514,-2.5691097343846265,3.5656965421593703,0.06399747614583617,-137.76390462,-5.7401626925,Mn3OF8
mp-561176,4.0801,-2.7097677492818484,3.0294602184236936,0.0,-329.80061591,-4.8500090574999986,Sb2POF13
mp-555871,1.3192000000000004,-0.9696897249107148,3.4305125372614595,0.0,-112.23779976,-4.008492848571429,Na2CuSbS3
mp-6896,4.3414,-0.2980451387050005,2.2531267113335542,0.06494352515625046,-236.45156642,-7.389111450625,Rb2NaCo(CN)6
mp-28719,2.5555,-2.232705071774545,5.801832923448306,0.0,-88.78178154,-4.035535524545455,Ba(AuF4)2
mp-773250,,,,,,,
mp-676646,2.3641,-3.7534980373706888,6.5451127264472255,0.09944131599138116,-267.16942423,-9.212738766551725,Tb2Zr8O19
mp-561447,4.999700000000002,-2.884588675256172,2.0211850644393574,0.0,-808.32309627,-7.48447311361111,K3AlB8O15
mp-866647,,,,,,,
mp-27147,3.3,-1.4052305321250005,3.8816703078747032,0.0,-245.61506527,-3.070188315875,Rb3BiBr6
mp-541601,5.3482,-2.9230331554047617,3.187091816932788,0.001125776388877675,-262.21404792,-7.283723553333332,KPr(PO3)4
mp-565819,,,,,,,
mp-773205,1.018,-2.5102529966887217,2.453232030351214,0.08495653579860463,-266.27665908,-7.396573863333334,LiMnB2O5
mp-557744,1.9151,-3.1671171536979164,5.2791777951178815,0.0,-263.39315292,-8.23103602875,NaUBO5
mp-579270,,,,,,,
mp-558772,1.9236,-1.6514296780357152,3.1360853918489084,0.0,-287.68588791,-5.1372479983928585,Rb2ZrS4
mp-560045,4.3408,-0.6116152954244995,1.3668780376805034,0.06767670385924518,-417.38713039999993,-5.21733913,H5CSN2Cl
mp-571189,0.4765999999999999,-1.1537732418576383,6.4590736814743375,0.0,-106.37863156,-5.909923975555556,NaHf2CuSe5
mp-30219,4.3612,-1.88124159934,2.2019322184397514,0.0,-81.76536948,-3.406890395,KGaCl4
mp-18762,1.1126999999999998,-1.4235833604687502,2.7321862049282664,0.08187821156249786,-69.21774621,-4.326109138125,Na4CoO3
mp-5572,3.0040000000000004,-2.2093408955625,6.097342882153836,0.0,-248.52358279,-6.21308956975,Ho2Te5O13
mp-755141,4.0623,-3.175427001875,6.656806073872152,0.0071849925000000425,-54.17534164,-6.771917705,NaHoO2
mp-779087,2.6472,-2.49219137208224,3.2107304845127147,0.005582846865086033,-259.06676816,-7.196299115555554,Li3Mn2Fe(BO3)3
mp-31455,0.2437999999999993,-0.2348795083333333,8.233618438153252,0.02460663750000069,-23.19038339,-7.730127796666667,VSbRu
mp-8977,2.6232000000000006,-1.3085572047019045,3.312695445496565,0.0,-164.48388449,-6.8534951870833325,Ca2PN3
mp-757817,1.1549000000000005,-2.712616242921245,3.156564458623776,0.10367998253846622,-375.90022951,-7.2288505674999985,Li2Nb(PO4)2
mp-8470,3.1969000000000003,-2.968804990625,5.018030332860267,0.0,-52.9193461,-6.6149182625,NaPrO2
mp-761782,,,,,,,
mp-556120,1.9874,-1.9595463928125003,4.179882273902587,0.0,-67.76804719,-5.6473372658333325,RbTl(SO4)2
mp-758953,4.3765,-0.6216533139655848,1.7646614519682566,0.008156933181822978,-241.36803284,-5.48563711,P2H12BrN7
mp-780492,2.4366,-2.2692921357208595,2.3839155828146805,0.056876396651920125,-259.87927392,-6.338518876097561,Li4VP6(H4O11)2
mp-6361,3.3005000000000004,-3.071218201136364,4.761577149127935,0.0,-151.47872966,-6.885396802727272,NaSr3NbO6
mp-555076,5.1719,-3.0460174086266663,3.2224511559196105,0.0,-169.40949765,-4.705819379166666,KNaSnF6
mp-765775,1.8559,-2.4659715950520833,3.2579392670254275,0.06103169656250085,-110.57166054,-6.91072878375,Li2V2SiGeO10
mp-780907,,,,,,,
mp-762473,,,,,,,
mp-29314,0.6103000000000001,-1.1278029911666665,3.861318584958948,0.10068676933333263,-123.67610891,-4.122536963666667,RbVBr3
mp-25081,,,,,,,
mp-555077,2.3789,-2.070527861428333,4.865926140694484,0.0007692466666666675,-52.38683319,-4.3655694325,Sn2IF3
mp-721300,5.0985,-2.7920315674,2.6106512777724995,0.007634895708332756,-430.27946704,-7.171324450666666,Ca2B5H2ClO10
mp-763877,,,,,,,
mp-13542,0.4017000000000008,-0.5090327858333333,5.831129812844376,0.00038967166666381564,-57.58522539,-4.7987687825,ZrGeTe4
mp-760411,2.0764,-1.78167548703125,7.707596211242841,0.013537728593750131,-52.48133382,-6.5601667275,Bi2CO5
mp-772126,,,,,,,
mp-21497,3.1328,-1.9274900230468752,6.6109238409988835,0.0,-95.09283299,-5.943302061875,Pb2SO5
mp-778723,2.7755,-2.45519683149251,3.2468035518832346,0.016216487341282004,-254.24584614,-7.062384615,Li3MnFe2(BO3)3
mp-776281,1.5830000000000002,-2.3445938147019993,5.589504612899455,0.006124206750000028,-391.75184142,-9.7937960355,Zr2N2O
mp-25637,,,,,,,
mp-570076,0.4272,-0.3120088887499999,6.956867645906384,0.009369832343749884,-24.69107843,-3.08638480375,Tl2CdSnTe4
mp-12787,5.6222,-3.2676523952777767,2.427299969308494,0.010345273888887618,-142.30607267,-7.905892926111112,SiO2
mp-705456,,,,,,,
mp-762582,,,,,,,
mp-8449,3.8479,-2.5049331748148145,3.434793928691637,0.0,-101.45872991,-5.636596106111112,Rb2Li2SiO4
mp-505677,,,,,,,
mp-643069,4.3203000000000005,-1.6202093131406672,2.6483093853460704,0.0,-83.71321387,-4.1856606935,Li2HIO
mp-763378,,,,,,,
mp-1008394,2.2452,0.0,1.6735675374982029,0.0,-7.39410493,-1.8485262325,Cl2
mp-8226,2.3044,-3.1284906895233333,9.221073095221367,0.0,-52.34470528,-8.724117546666667,ThNF
mp-29988,1.3551,-1.2507435627163792,3.4939129844296284,0.004962258750000892,-110.09431855,-3.4404474546875,CsPd2Cl5
mp-766328,0.3803000000000001,-1.4467256158434956,6.6441583685393475,0.05205289396341328,-222.44608663,-5.42551430804878,Ag7Sb9O25
mp-853195,,,,,,,
mp-8388,0.3795,-2.5623628993942864,3.1872519766571874,0.00017120857142760568,-59.87749079,-4.276963627857144,K2CuF4
mp-778687,,,,,,,
mp-777695,,,,,,,
mp-780200,3.6175,-1.8981085848728096,2.755265845285344,0.3085396100000013,-238.98956908,-5.974739227000001,LiFePH2O5
mp-540466,,,,,,,
mp-776136,,,,,,,
mp-771423,,,,,,,
mp-560019,3.8565,-2.414268197950981,3.4713995772727952,0.0,-225.86265624,-6.643019301176472,K2Ge3(BO5)2
mp-2667,1.0239,-0.3064106939655171,6.514133746765362,0.0,-4.7821053,-2.39105265,CsAu
mp-13956,0.8682000000000003,-0.10418721975322437,5.6055778870223065,0.0,-177.52961381,-3.698533621041667,Ag2PSe3
mp-677335,4.7096,-2.6024584022619046,2.866229530107705,0.0,-41.03878807,-6.839798011666668,GaPO4
mp-776623,,,,,,,
mp-689943,1.2195,-1.9217982105952378,2.88472891269118,0.2190474968055547,-156.64421918,-6.526842465833332,CoPO4
mp-23568,2.1924,-0.9007802166753852,3.128066261782255,0.0,-190.02797348,-3.654384105384616,XeN2(OF4)2
mp-34459,1.9351,-2.415589691785715,5.279960796546773,0.052290113571435086,-84.51268912,-6.036620651428572,Ba(NdS2)2
mp-556986,5.0821000000000005,-3.2758776544942423,4.237267501947663,0.0,-329.05725752,-7.4785740345454546,Er2B2Cl2O5
mp-18383,2.3437,-1.5595136614374998,2.287751328820945,0.0,-159.20228256,-4.97507133,K3NbS4
mp-755357,3.7405,-2.8127020783333325,5.313099029428027,0.0,-86.57105123,-7.214254269166666,NdAsO4
mp-752706,1.9568000000000003,-3.8166681365277784,5.645124025857188,0.016673558541672406,-339.25382025,-9.423717229166666,CeZr11O24
mp-779257,0.7554999999999996,-2.0740463666964284,3.8228842597027337,0.08107528796874862,-96.00102591,-6.000064119375,Li3Cu3(PO4)2
mp-542772,2.3395,-1.508668635696092,4.143636608456494,0.010152252499999737,-24.54061585,-3.06757698125,CsAgCl2
mp-690244,,,,,,,
mp-541217,,,,,,,
mp-764644,,,,,,,
mp-676306,0.34359999999999946,-1.1203754381818178,6.928561515856043,0.00841318204545338,-106.91299869,-4.859681758636363,Dy7(CuTe4)3
mp-764888,1.3592,-2.392541250144927,3.265101647534839,0.023474330141317168,-322.73190733,-7.015911028913044,Li3Fe4(BO3)4
mp-772060,0.8922000000000003,-1.8861800586666664,4.219099748835397,0.4343940563333426,-95.29498935,-6.35299929,Li3NbFe3O8
mp-773599,0.8921999999999999,-1.8984398458333327,5.824219977463795,0.02656392979167421,-281.78329464,-5.870485305,NaSb3O8
mp-757388,4.9662000000000015,-1.5322659481392855,1.638473484139577,0.026405750416669704,-272.69612508,-5.6811692725,PH6NO4
mp-778149,2.3633,-2.881519633148291,2.548570355276155,0.024932961304350517,-668.2383685,-7.263460527173913,Li6Ti3P8O29
mp-760361,2.697,-0.5926740235499999,1.1023564503921108,0.217267023591333,-175.11122613,-4.37778065325,H3NCl
mp-768149,1.9883,-3.0082244324166667,7.469215572592838,0.004298203583332771,-210.81953483,-7.027317827666668,DyInO3
mp-24412,2.3494,-0.32791869527199996,1.6609444907517383,0.0,-29.99620365,-2.999620365,K2NaAlH6
mp-625548,1.6369999999999998,-1.3808683159479995,4.647891733112897,0.010807195000000823,-22.78134862,-4.556269724,Cd(HO)2
mp-20727,1.9283,-1.9104855608333329,6.619821528481568,0.0,-54.63895158,-6.07099462,Sb2PbO6
mp-31939,,,,,,,
mp-561166,3.6856,-2.5833005086458343,3.895158125866149,0.0,-162.25286857,-6.7605361904166665,Na2ZrGe2O7
mp-753803,2.3181000000000003,-1.9496510196724133,4.366103204186032,0.09301273699999957,-88.11941406,-4.405970703,Cs2CaO2
mp-569531,1.8372,-1.2660983275,3.8316259117766416,0.005199768333333577,-74.2705776,-3.0946074,Rb2CuBr3
mp-19006,1.7243999999999997,-1.9934462509325852,5.190708169936278,0.0,-31.42682858,-7.856707145,MnO
mp-1018025,2.1566,-2.719006658958333,8.244932621973327,0.0,-26.72083715,-6.6802092875,LuAgO2
mp-768301,5.644500000000002,-3.2979653889722216,6.133421328836694,0.0306823004722272,-247.12570072,-8.237523357333334,Ho2B4O9
mp-768231,4.2308,-2.9405365473633323,4.059870622457051,0.08214630624998788,-59.91857689,-7.48982211125,YHO2
mp-753318,4.5152,-3.4754976734166667,6.097586120527157,0.05999986299999983,-82.80132451,-8.280132451,DyBO3
mp-779404,2.6701999999999995,-2.086061580875,4.024519518926444,0.0063714086250001856,-510.60641969,-6.382580246124999,Li3Cr2(AsO4)3
mp-7129,1.6800999999999997,-1.348125883611112,3.709246918744265,0.0,-88.15925349,-4.897736305,Rb2Ti(CuS2)2
mp-2319,0.7748999999999988,-0.5208124123809519,9.334691524160824,0.0,-47.23268682,-7.87211447,P2Os
mp-771553,,,,,,,
mp-27140,1.8559999999999999,-1.9845411452794115,4.4669204772697375,0.0,-198.35263172,-5.833900932941178,K2Sb4O11