id,band_gap,formation_energy_per_atom,density,e_above_hull,energy,energy_per_atom,pretty_formula
mp-14131,2.074,-1.186361195534666,2.4816069040358917,0.018411365000003066,-363.87166107,-6.064527684500001,K2Pd(NO2)4
mp-771771,3.5547,-2.979722117222222,8.590514129834967,0.031290612777768345,-318.87854391,-8.857737330833334,Ta2PbO6
mp-21964,0.6871999999999998,-0.3821982033333337,6.527369267045447,0.013817457708331204,-198.13775007,-4.127869793125,TlCu7S4
mp-553248,1.4415,-3.205662069243731,5.264224566566862,0.03316747897726913,-91.0159606,-8.274178236363637,CsLaNb2O7
mp-770109,,,,,,,
mp-773298,,,,,,,
mp-567942,1.2477999999999998,-1.7311432456024518,3.6217993834310596,0.0,-37.338727,-4.148747444444444,Cs2ReCl6
mp-6606,2.7456999999999994,-1.4599239832046147,4.084069474784716,0.0012347453846235368,-208.99087125,-8.038110432692308,SrYSi4N7
mp-31003,2.3907,-0.17436162746430503,1.4705298858741396,0.0,-916.95336911,-4.775798797447917,B10H13I
mp-763531,,,,,,,
mp-4730,0.9080999999999999,-0.5036758656249997,5.714704394229424,0.0,-23.86918583,-3.40988369,Ga2HgSe4
mp-733489,1.9922,-0.8052654916787501,2.1395867232730144,0.005473950205966638,-241.80542674,-3.7782097928125,SbHC2NCl11
mp-554996,5.3537,-2.842631468583332,2.1577614736761213,0.0,-840.84155446,-7.644014131454545,K5B19O31
mp-776619,,,,,,,
mp-758147,0.5284,-2.3519919466879244,2.3492843889056054,0.06120881035714287,-373.54745432,-6.670490255714285,LiCu(PO3)3
mp-9798,1.0967000000000002,-0.4973327324107148,4.731768023908022,0.0,-53.40701656,-3.814786897142857,Rb(SbSe2)2
mp-21461,1.236,-1.5634575447916668,5.505733758542097,0.0,-111.16559748,-4.631899895,Rb2PbO3
mp-559298,3.3074,-3.200261200669583,5.409134334998133,0.0,-692.84775483,-7.2171641128125,La5Sb4(O4F)3
mp-768031,,,,,,,
mp-683905,1.2004,-0.7244992805753675,4.692403482624617,0.0,-164.95354697,-4.851574910882353,K3Ta2AsSe11
mp-867590,0.40709999999999996,-2.0764733653270833,3.5953593296164588,0.09279812687500755,-135.28749514,-4.227734223125,LiCu2F5
mp-505396,1.4987,-1.6095073533812263,4.606732207593153,0.0,-160.05155597,-4.445876554722222,CsNa3PbO4
mp-705300,0.22190000000000004,-2.356370137933673,2.4252646591560123,0.08946662065476296,-295.75046341,-7.041677700238095,Cr(PO3)5
mp-767805,,,,,,,
mp-625687,3.5222999999999995,-1.2394745025057143,1.737338124032789,0.017595344107142807,-260.51944561,-4.652132957321428,H9BrO4
mp-767997,,,,,,,
mp-773736,,,,,,,
mp-31579,,,,,,,
mp-556297,1.2118,-0.4683298910924997,2.0242625281703637,0.2726812929489988,-355.93531067,-4.449191383375,FeS3(NCl2)2
mp-16102,2.1142,-1.991348654171628,4.559886871707948,0.018454144791677507,-285.46773029,-5.947244381041667,ZnAg2P2O7
mp-753054,3.7288,-1.8405453892299999,3.3931831622606983,0.039071165416667775,-100.04044621,-4.168351925416666,KI(OF)2
mp-772513,1.6701,-1.7978711188888887,2.9002579460343223,0.1239872075000008,-321.47536976,-6.697403536666666,LiCr3O8
mp-775604,,,,,,,
mp-774087,,,,,,,
mp-776830,,,,,,,
mp-765852,,,,,,,
mp-561027,5.5314,-3.119029168095237,1.751676388615274,0.011958577499999734,-717.6911772,-7.4759497625,AlPO4
mp-753905,2.2484,-3.869448191856061,7.2440515103591,0.0977910923863643,-196.65821289,-8.93900967681818,Tm2Zr2O7
mp-768284,3.7640000000000002,-2.629267617061403,2.6621489666575178,0.04687171868421558,-271.05751232,-7.133092429473685,Li3Sn(BO2)5
mp-774357,1.0506999999999997,-1.4283046795454546,2.776371715890903,0.06211613659090798,-183.2066767,-4.163788106818182,Na6CoO4
mp-11654,3.8556,-2.095735475555554,3.8065982869107575,0.04682747500000062,-122.68492029,-6.815828905,BAsO4
mp-2741,7.1148,-4.245612699126666,3.0898325427141544,0.0,-17.5774011,-5.8591337,CaF2
mp-763651,,,,,,,
mp-643070,3.1206999999999994,-0.4954283943180955,1.7756876864272717,0.00019467999999811525,-68.54884823,-3.2642308680952383,Ca4Mg3H14
mp-29815,0.5974000000000004,-1.0632273083333328,6.262436882115341,0.0,-139.5416412,-5.81423505,LaAs2
mp-6318,5.3179,-2.4092603868273805,2.274020047605907,7.91892857128218e-05,-80.6795925,-5.762828035714286,KLiSO4
mp-744764,3.2105000000000006,-2.40913839220036,3.380657674305695,0.0,-298.47530138,-7.279885399512196,Mn7P6(HO6)4
mp-763833,,,,,,,
mp-29555,2.1220000000000003,-0.6901368066666664,4.350222521929635,0.0,-194.27878368,-5.39663288,MoBr2
mp-10492,6.991199999999999,-3.453343420793333,3.2554240458183554,0.0,-46.98785039,-5.220872265555555,Rb2SiF6
mp-540721,5.6655999999999995,-2.088259682641955,1.7065584988093034,0.0019085247413537232,-731.43889887,-6.30550774887931,NaB5H10O13
mp-19143,2.1224000000000003,-2.0182444134615385,4.927508725169534,0.0,-163.81424733,-6.300547974230769,BaCo2(AsO4)2
mp-626735,3.9758999999999998,-1.84977557227875,3.4608036881817776,0.009932584374999998,-84.82623692,-5.3016398075,BaH4O3
mp-624191,0.6334,-0.6843515553125007,7.005217706908195,0.009360605833333757,-104.89316613,-4.37054858875,CuBiPbS3
mp-558387,4.189,-2.136241549032501,4.668174251850975,0.0,-75.10013145,-4.693758215625,TeOF2
mp-761450,,,,,,,
mp-27176,2.2847999999999997,-1.2867109878870344,2.5464628958684545,0.4496277115000016,-41.33807469,-4.133807469,NaMnCl3
mp-776418,2.9963,-3.6506093275000007,6.74817688031352,0.08591669089285858,-290.75453753,-10.384090626071428,CaGd2O4
mp-9130,0.5891000000000002,-0.6441283278750006,4.293897839815305,0.1258763319999998,-109.68663318,-5.484331659,CrSbS3
mp-769967,0.7161999999999997,-2.5239807740000004,4.0803888749945845,0.0734120391666675,-219.70835494,-7.323611831333333,Li3NbV3O8
mp-1019525,4.8405000000000005,-3.026307973447421,4.163878511372935,0.0,-355.79464018,-7.412388337083333,Ba3ZnB5PO14
mp-28003,7.389600000000001,-1.7816890884299996,1.566546078932386,0.0,-97.92973189,-4.451351449545455,H6OF4
mp-763095,,,,,,,
mp-776801,,,,,,,
mp-22621,1.4692999999999996,-2.9608516526190476,6.23157551215446,0.09019156883928403,-106.74442489,-7.624601777857143,LaTiAgO4
mp-7219,1.3302,-1.2955182270052081,4.201333806543354,0.0,-58.86598087,-4.905498405833334,Na2ZrSe3
mp-764954,,,,,,,
mp-571594,1.124,-0.6687113447388892,4.2586093738601605,0.004406538833332085,-112.27714566,-3.742571522,K3AgSn3Se8
mp-772686,,,,,,,
mp-760007,3.2918000000000003,-3.1194808791887496,9.019009204862124,0.003776899374999587,-166.93868425,-10.433667765625,Hf3N2O3
mp-773710,,,,,,,
mp-765531,,,,,,,
mp-572998,3.515,-1.5018069325961534,5.715235372044192,0.0,-267.30982823,-5.140573619807692,Lu(IO3)3
mp-22916,4.0899,-1.5826751675000001,3.1207986593285284,0.0,-6.11449988,-3.05724994,NaBr
mp-674646,1.0625999999999998,-2.126780458532609,6.642456122261825,0.12546117461957085,-135.42595086,-5.88808482,Ca4Bi6O13
mp-773755,,,,,,,
mp-763588,2.1285,-1.7471924899166673,2.5457895195064606,0.2250248479999959,-138.08935449,-6.9044677245,LiFe(CO3)2
mp-763582,,,,,,,
mp-861906,5.0440000000000005,-2.973476210748299,3.749538053948424,0.0,-92.56087518,-6.611491084285714,BaNa2Mg(PO4)2
mp-695506,1.1888999999999998,-3.288703905949999,3.9440512691267644,0.0649162078500023,-395.30735252,-7.9061470503999995,Na3Ca7Ti7Nb3O30
mp-849402,,,,,,,
mp-24121,3.584,-2.316692022087143,5.574757523833166,0.016327985714283066,-86.61483329,-6.1867738064285716,Tb(HO)3
mp-4049,0.22959999999999958,-3.188959233722528,5.479589514888208,0.05359168615384746,-226.153702,-8.698219307692309,U2P2O9
mp-18733,3.8659,-2.269041819999998,4.34017178666337,0.0,-81.93032462,-6.827527051666666,AlTl(MoO4)2
mp-850174,,,,,,,
mp-767829,,,,,,,
mp-863289,3.1283000000000003,-2.855353871312263,3.232390390554982,0.08952495306512276,-383.41656432,-7.234274798490566,NaAl6Fe3Si6B3H3O30F
mp-780913,1.8256000000000001,-2.136412085625,3.612350079671735,0.18367118458333298,-142.3210844,-5.930045183333333,Na2VO3
mp-764507,1.404,-2.38071046711111,3.2777531630738665,0.033693653883343444,-317.89805799,-7.064401288666667,Li5Fe8(BO3)8
mp-8409,3.9882,-3.0990050247083323,4.0173246733705845,0.0,-28.46382464,-7.11595616,KYO2
mp-649905,,,,,,,
mp-764409,0.6244999999999998,-2.0711804820138884,3.657395736821945,0.19511447125000103,-146.4878899,-6.103662079166667,Li2CrO3
mp-781958,,,,,,,
mp-767031,,,,,,,
mp-555982,4.0973,-2.61375508451885,3.03007693934464,0.009121559166666238,-514.83170226,-7.150440309166667,Si2Ge3P6O25
mp-554150,1.6761999999999997,-1.8467052343229173,4.979338290929822,0.0,-138.98507962,-5.791044984166667,Nd3CuGeS7
mp-28585,1.0701,-1.5238985610810005,3.833899440196827,0.0,-436.72012525,-5.459001565625,Nb3ICl6
mp-19162,3.122,-3.2320128149999996,4.4986475753999375,0.0,-97.42220408,-8.118517006666666,LaVO4
mp-14091,1.1360000000000001,-0.6188816720052084,4.7910760760091184,0.0,-32.09090906,-4.0113636325,AlAgSe2
mp-1009730,0.6909000000000001,-0.6265731133333331,3.043351121018018,0.03054644166666698,-9.87093979,-3.290313263333333,Ca2Sn
mp-9304,1.1804000000000006,-2.1538453271484386,8.039123926549482,0.016115164374999935,-50.12590353,-6.26573794125,DyCuSeO
mp-559519,3.0702000000000003,-2.319244276015625,3.130199387948299,0.0,-195.55971723,-6.1112411634375,Na4TiAs2O9
mp-8175,0.8835999999999999,-1.3995843738750002,6.951055582464051,0.0,-17.5617203,-4.390430075,KTlO2
mp-765313,,,,,,,
mp-560008,5.609,-2.0787172783328565,2.195508958646803,0.0,-49.04345486,-6.1304318575,PNF2
mp-772185,4.4135,-2.975138205916667,5.389125147077212,0.0,-211.42927606,-7.047642535333334,Li6Hf2O7
mp-13194,2.1851,-2.7936416875000005,6.501337740948477,0.005069347083332509,-170.61764292,-7.109068455,PrSbO4
mp-15395,5.1937999999999995,-2.8795808612860663,3.8259712934130636,0.0,-188.75131601,-6.741118428928572,CsBePO4
mp-776763,2.5978,-2.8434345013235296,4.140918675729339,0.03921245705882548,-560.74313443,-8.24622256514706,Ti3(WO6)2
mp-767281,,,,,,,
mp-761763,0.4363999999999999,-1.4310172145238096,4.561761898008689,0.23100109607142905,-158.51332177,-5.661190063214286,Li2FeCo3O8
mp-767661,2.3638000000000003,-3.180816177410417,2.5447132884575585,0.04201683437500403,-175.06992786,-5.470935245625,Li2VF5
mp-850155,,,,,,,
mp-12955,1.2728000000000002,-1.2028817638802085,7.13266496196793,0.0,-76.87315175,-4.804571984375,HoAgSe2
mp-560721,5.2938,-3.297089983640833,2.872227025703967,0.0,-337.43001066,-7.02979188875,NaCaBeSi2O6F
mp-560577,4.029,-3.688764094583,4.064051376406741,0.06669314724997477,-233.55989167,-5.83899729175,BaCaCrF7
mp-756704,3.2808,-3.526593720480769,8.801571886188004,0.01604818423076715,-248.30197989,-9.550076149615386,LuTa3O9
mp-771248,2.9897,-2.119498032083333,3.418851667652233,0.022197985436511303,-208.65311561,-5.795919878055555,Na2Ge2O5
mp-487,0.4421999999999997,-0.36123319078817817,4.057132049860365,5.70789999994048e-05,-65.24203174,-6.524203174,MnP4
mp-24894,,,,,,,
mp-776724,,,,,,,
mp-764587,1.4662,-1.9891328457575745,3.248748660973646,0.4235865677954802,-296.37900933,-6.735886575681818,LiFe2(BO3)2
mp-757306,0.5950000000000001,-2.3419321078306883,2.6076065330805305,0.01297654000000037,-241.52807307,-6.709113140833334,LiCu(PO3)4
mp-765842,,,,,,,
mp-10155,0.6438000000000006,-0.7224445840476198,9.076968174361669,0.0,-87.32934358,-7.277445298333333,P2Ir
mp-32005,,,,,,,
mp-571314,0.796,-1.6213601009342857,2.2544494979036487,0.1235572859523808,-102.77616121,-3.6705771860714287,K2CoCl4
mp-680148,2.3384,-0.5902153598333335,5.073179847541577,0.0017909784999998735,-114.49733979,-1.9082889965,CdI2
mp-604147,2.1905,-0.5719525154605556,1.4672205978516717,0.008894688333334066,-218.77054232,-4.557719631666667,Na2Li(H2N)3
mp-560939,4.4754000000000005,-3.128649341217533,3.704712604506986,0.0,-324.83841147,-7.382691169772727,NaLaP2O7
mp-555743,4.1945,-2.5620146202125844,3.1661787860121327,0.0,-695.97493658,-6.21406193375,LiZnPO4
mp-23572,2.3761999999999994,-0.9032795651834417,3.0841463523508224,0.0,-200.28156534,-4.551853757727272,KBiP2S7
mp-768345,3.8413000000000004,-3.143268574490741,4.127747496618794,0.0067879388888876235,-266.85786983,-7.412718606388889,Ba2B2O5
mp-18856,1.3723,-2.0181619478124997,4.118450011487653,0.0,-224.9942347,-7.031069834375,MoO3
mp-28650,1.8073000000000001,-1.496537488530259,3.639105116458192,0.0,-11.57595554,-2.893988885,CsBr2F
mp-620069,0.9338,-1.7427824977385715,2.6720642009806452,0.009395360000000963,-121.41216176,-4.336148634285714,K3Mo2Cl9
mp-600053,5.522,-3.261316049880953,1.657381356598433,0.016681619285712657,-663.56275278,-7.899556580714285,SiO2
mp-571445,2.5459,-1.3425087270206255,5.4347179766520854,0.0,-82.98621074,-3.4577587808333337,HfHg3(SeCl3)2
mp-600001,5.4925,-3.2527220885,1.5878120600755214,0.025275580666665576,-118.36443929,-7.890962619333334,SiO2
mp-19232,3.0699,-2.075427494785714,2.5906925979880997,0.0,-165.48599881,-5.910214243214286,K2CrO4
mp-850937,1.6657,-3.002834643952,3.0025134972184495,0.024513009999999724,-112.3869197,-5.619345985000001,VF4
mp-769523,0.7748,-2.183538189603183,2.613329133340609,0.07593860456518087,-315.67837588,-6.862573388695652,Na3Mn2P2(CO7)2
mp-540375,,,,,,,
mp-769983,,,,,,,
mp-776187,,,,,,,
mp-677002,1.1801,-1.9876425027514733,3.525573474880348,0.0,-479.09583101,-5.570881755930232,SrZr12B2I5Cl23
mp-4979,1.6756000000000002,-1.1406798790625006,3.4359934823232727,0.0,-38.7069635,-4.8383704375,AlCuS2
mp-555292,5.148700000000001,-2.074925426770357,2.090252220436667,0.0037918515625054994,-196.05248019,-6.1266400059375,PNF2
mp-779227,1.4433999999999998,-2.927723240763889,3.354574230029496,0.017568943666665504,-503.9398074,-6.999163991666666,Li24Ti11CrO36
mp-706629,5.276199999999999,-2.0165246501619047,1.8402409470707837,0.009646392678583915,-507.45015306,-6.041073250714286,NaB2H5O6
mp-757507,2.5489999999999995,-2.4468336124999994,8.131419801068418,0.03769542509375068,-266.93957441,-6.67348936025,Sm3Bi5O12
mp-29276,4.2535,-2.4668988437071433,3.058118733122404,0.0,-336.28180958,-6.7256361916000005,Cd2P6O17
mp-763457,,,,,,,
mp-19064,0.4144000000000001,-2.3797885039236113,6.8785345825740665,0.04241318798612426,-157.13040399,-6.54710016625,Yb2Fe3O7
mp-28261,1.8939999999999997,-1.67009401421875,3.10193072671521,0.0,-70.67787104,-4.41736694,Na4SnO3
mp-676665,2.2351,-3.286264222,7.257434557997817,0.008991260500003762,-314.43844278,-7.8609610695,Ba4Ta2TiZnO12
mp-752733,2.3075,-2.6639273057812503,5.273662995946568,0.0769155015624996,-112.98195694,-7.06137230875,TiGa2O5
mp-707765,3.3829,-1.3058255475643479,2.20321421904256,0.01675665146739025,-410.17410072,-4.45841413826087,TeH12(Cl2O3)2
mp-559355,1.5141999999999998,-0.5854462323066664,5.782909275528214,0.004192481805555204,-51.96844331,-2.887135739444444,Hg3AsS4Cl
mp-18971,0.2408999999999999,-1.1918805378115167,10.28643487022421,0.0,-63.08637764,-6.308637764,Mn(PtO2)3
mp-762632,3.0213,-2.2260404566666674,2.869517342804177,0.3996933110714389,-91.26711124,-6.519079374285715,LiFeSiO4
mp-643033,4.520099999999999,-1.8991067582108037,2.1077666643403363,0.0,-44.40599847,-5.55074980875,KPH2SO3
mp-769007,3.1406,-3.9591467750833336,4.400674841185968,0.01993013145833089,-271.98764426,-9.066254808666667,YScO3
mp-773740,,,,,,,
mp-779434,3.4779,-3.1069448652651515,5.157745139004874,0.0541493851917636,-655.42407329,-7.4480008328409095,Li5La3Nb2O12
mp-861607,3.5102,-3.12435642825,5.547732656028408,0.0,-136.79215528,-7.599564182222222,KNaNdTaO5
mp-752418,1.7863000000000007,-2.7189154671875,5.818279701616618,0.0019674473888926514,-138.81631988,-6.940815994,La2Se2O
mp-546862,2.2621,-1.3559657484314285,7.4651519959641375,0.0,-28.21960125,-4.031371607142857,HgPb2(ClO)2
mp-850092,,,,,,,
mp-777476,1.9998,-2.4439676203174585,3.4173931728404168,1.572900187523146,-260.58380385,-7.238438995833333,CrFe2(PO4)3
mp-771857,,,,,,,
mp-673650,1.7496,-1.73856041915625,8.246989221620154,0.11052340875000066,-225.77950055,-5.64448751375,Lu2Se3
mp-554155,2.9461000000000004,-2.4692111212619046,3.313599320194289,0.0,-79.66182746,-6.638485621666667,KSb(PO4)2
mp-570117,1.2345999999999995,-1.3735005611718747,7.5185280358385045,0.0,-19.41490292,-4.85372573,ErTlSe2
mp-19474,3.4599,-2.9292782685227268,4.229667073472285,0.0,-322.32149294,-7.325488475909091,Ba2V2O7
mp-769348,2.0096999999999996,-2.442633457916666,5.562603921219008,0.07301658899999808,-122.15741837,-6.1078709185,MgSnO3
mp-554121,3.1727999999999996,-3.8487316755393333,4.760697622789231,0.0,-101.98397532,-6.798931688,NaHf2VF11
mp-565331,,,,,,,
mp-8836,7.1511,-4.05721778442143,2.825865883975376,0.0,-82.49662745,-5.892616246428572,CaAlF5
mp-762487,,,,,,,
mp-655591,2.5477999999999996,-0.15277279031249957,2.3023551776621582,0.011596633750012408,-219.27781096,-6.8524315925,LiB13C2
mp-779986,,,,,,,
mp-34036,1.7849000000000004,-2.0070257235227276,8.30547155350923,0.12339160818181139,-73.55749542,-6.687045038181818,NbBi3O7
mp-504751,3.0145,-1.6741147690885707,5.774441290248636,0.004761322142858404,-80.62459906,-5.758899932857142,AsHPbO4
mp-1243,2.4063000000000003,-2.2483483017499992,6.182904805561131,0.02982134900000233,-60.06983551,-6.006983550999999,Ga2O3
mp-16809,4.6183,-3.6758671019318196,6.187341799528723,0.012082899999999341,-360.66318181,-8.196890495681819,Ho2Si2O7
mp-761853,3.1109,-1.38052695719723,1.54063803553319,0.04294005908536924,-794.37088759,-4.843724924329269,Na3PH22(SO4)3
mp-554706,3.7143999999999995,-1.8949263990239777,2.713969978243419,0.0,-165.13385464,-3.753042150909091,AsSe(ClF2)3
mp-9749,4.9456,-3.1322620833333334,3.2152349405144123,0.0,-215.82703598,-7.708108427857143,Sr(BO2)2
mp-765875,,,,,,,
mp-645682,,,,,,,
mp-18048,2.9234999999999998,-2.0095928719047618,3.7172095709994273,0.0,-233.26022098,-5.553814785238096,LiZnAsO4
mp-765447,,,,,,,
mp-27485,2.6664,-1.8111719956944456,3.112071832286409,0.0,-266.96578425,-7.415716229166667,Tc2O7
mp-622116,0.9323,-2.4156402201683327,4.9667926464088925,0.011152729618057577,-294.92987608,-6.144372418333333,ReOF4
mp-541661,4.1295,-3.1636794492989426,3.057975001039955,0.019847366250001386,-286.27679482,-7.952133189444445,LiZr2(PO4)3
mp-705558,1.1381,-1.6222360959114575,4.103433621839338,0.2201119191666674,-312.9625381,-6.520052877083334,Fe7O9
mp-628617,0.6342000000000003,-2.282272540160243,4.108249749393592,0.0,-187.02470459,-5.500726605588235,Cs4K2Cu(SiO4)2
mp-776214,2.0381,-2.5406324897019985,10.393559809288806,0.005860840250001331,-422.14513466,-10.5536283665,Hf2N2O
mp-759735,4.3225999999999996,-2.53115035130176,3.3125414218915252,0.07776828689128568,-313.34426301,-6.811831804565218,Li2Bi(PO3)5
mp-23643,2.1605999999999996,-2.200020717570204,5.228840186354726,0.009992747916655276,-238.34628631,-5.674911578809524,Cd5P3ClO12
mp-3943,1.8348999999999998,-3.518806079947916,4.938200250731178,0.0229729198958335,-201.26355748,-8.385981561666666,BaTi2O5
mp-680180,4.134399999999999,-0.30035717622062474,1.8824754613740309,0.0709925381250045,-946.56545201,-7.395042593828125,K3Co(CN)6
mp-23251,4.3224,-1.7616458115,2.624472380063538,0.0,-6.27061711,-3.135308555,KBr
mp-779872,,,,,,,
mp-557614,3.7125000000000004,-2.4389387980158737,3.6127729797970787,0.013605088750004768,-236.62886599,-6.573024055277778,Cd(PO3)2
mp-707483,2.9733,-2.3788957028358038,2.500768820823351,0.0,-431.81556669,-6.74711822953125,TiP2H4O9
mp-28563,1.4159,-0.6290729090921334,4.067285700371515,0.0024290281249967904,-120.49620019,-3.7655062559375,CsAsSe2
mp-2063,3.7756000000000003,-3.7187371767499995,6.776779072153455,0.02553943975000017,-40.89248058,-8.178496116,Pr2O3
mp-774994,1.6203999999999998,-2.379708255999999,3.253634701418326,0.034695864994453984,-317.85295849,-7.063399077555555,Li5Fe8(BO3)8
mp-554273,5.4822,-3.118369990386904,1.9069041707895602,0.01261775520833286,-717.62789614,-7.475290584791666,AlPO4
mp-556137,4.4513,-3.3139089365036227,2.8089713377774213,0.005443546920297138,-329.8456318,-7.170557213043478,Li2Ca4Si4O13
mp-757727,4.7844,-2.593460315848999,3.9192140054727607,0.007217074500005971,-413.52093563,-6.892015593833333,BaB2H2O5
mp-706243,4.4184,-2.2566585999487994,1.9909762456874867,0.0,-657.82912391,-6.5782912391,Al2Si3H8(NO5)2
mp-762880,1.4239000000000002,-2.2227989080952386,3.0327723597161755,0.21421786642857565,-180.43554214,-6.444126505,LiCoSiO4
mp-777198,,,,,,,
mp-771524,,,,,,,
mp-762054,,,,,,,
mp-626103,4.9129000000000005,-2.102528982444286,2.3818467936480805,0.030892741785710776,-327.35588078,-5.845640728214286,Al(HO)3
mp-28159,1.5837999999999999,-1.6884504327140004,3.1930858888695526,0.0,-69.95418562,-3.497709281,As(BrF2)3