id,band_gap,formation_energy_per_atom,density,e_above_hull,energy,energy_per_atom,pretty_formula
mp-757325,0.2422,-2.826229487,3.008247544,0.07497065,-195.6383367,-6.987083454,Li3Ti(PO4)2
mp-769287,2.2506,-2.07198309,2.280070114,0.027711993,-141.2008938,-5.883370576,Li2TiS2O
mp-557055,0,-1.094688097,2.573937578,0,-65.3898035,-2.724575146,CuClF10
mp-999130,0,-0.439467728,8.94606846,0,-22.56931325,-5.642328313,TbNi
mp-770209,0.147,-2.74300915,2.465486601,0.10374138,-170.5053989,-7.10439162,Li3Ti(BO3)2
mp-680677,0,-0.180876939,9.453350184,0,-125.8584611,-6.292923054,Sn3Ru2
mp-977535,0,-0.33321304,8.63745473,0,-15.30571368,-3.82642842,ErAlAg2
mp-18901,1.2266,-1.424416404,6.636390322,0.026296663,-74.81228991,-5.343734994,VAgHgO4
mp-1018160,0,-1.623611705,7.904296147,0,-15.94615799,-7.973078995,PmN
mp-770703,2.4585,-2.082320221,4.888881621,0.078350649,-234.9732725,-6.527035348,LiSbWO6
mp-767304,0,-2.947330933,3.507227485,0.015244101,-103.8281001,-5.768227786,LiMn2F6
mp-19955,0,-0.178592899,8.37035163,0,-56.91547571,-5.691547571,Co2CuGe2
mp-569748,0,-0.503047785,9.015687924,0,-82.99119056,-8.299119056,ThFe2SiC
mp-559257,1.4215,-1.167242591,5.93611806,0,-195.8923779,-4.897309447,AgTeO3
mp-36223,1.9463,-2.422831818,5.154569128,0.020490273,-84.61890688,-6.044207634,Ba(PrS2)2
mp-14216,2.6963,-1.931078637,7.161863685,0.000417842,-878.7772151,-5.781429047,Ga8(Pb3O7)3
mp-760819,0.1085,-1.754538528,4.526779825,0.066173278,-127.5178694,-3.542163039,LiAg2F6
mp-558042,1.6884,-1.823959429,5.321498706,0,-136.7923599,-5.699681661,Sm3CuSnS7
mp-5488,1.8353,-2.078447468,5.645493847,0,-42.85290248,-5.35661281,LiInO2
mp-24092,0,-0.759602049,7.052284209,0,-22.84168802,-7.613896007,GdH2
mp-862898,0,-0.667387866,9.458383489,0,-18.68703211,-4.671758028,PmCdPd2
mp-27484,0.5714,-0.825547493,9.413252504,0.000237347,-22.87391202,-3.81231867,Tl2O
mp-560165,0,-1.374635814,8.148479214,0.087431129,-76.8477872,-5.489127657,Cu(BiO2)2
mp-558198,3.7887,-2.158562349,3.403111605,0,-144.7860131,-5.568692811,Na2Cd(SO4)2
mp-17894,2.1861,-1.442277737,2.985752517,0,-132.9855436,-4.749483701,Rb3Sm(PS4)2
mp-771495,0,-1.867379912,3.053133336,0.051656535,-363.6575888,-6.269958428,Na6Co2As(CO4)4
mp-1007819,0,0.325788295,15.09817872,0.378902982,-19.41804387,-9.709021935,CoW
mp-4364,0,-0.30433394,8.743218447,0,-28.58113226,-7.145283065,NbGaCo2
mp-862937,0,-0.338856369,5.892493982,0,-10.25187648,-2.56296912,PmMgZn2
mp-979939,0,0.748095375,11.03780914,0.748095375,-14.5537582,-3.63843955,Yb3W
mp-2580,0,-0.763928363,7.441007131,0,-36.63904498,-9.159761245,NbB
mp-9324,0,-0.816756606,5.135571339,0,-89.01548609,-6.358249006,Ba3MnN3
mp-865796,0,-0.639986784,11.52543323,0,-22.69442615,-5.673606538,LuCdRh2
mp-505121,1.3273,-0.77478296,5.673463741,0,-97.67438073,-2.713177243,Na2Hg3S4
mp-5065,5.4032,-3.375904152,3.54744718,0.019454363,-244.2433308,-7.632604087,Al2SiO5
mp-769604,1.0979,-2.342820824,2.545055699,0,-164.0661838,-6.836090992,K2MnPCO7
mp-774749,4.3086,-2.6571592,2.661546667,0,-222.7962925,-6.188785903,RbNa3Li12Ti4O16
mp-24354,4.2222,-1.140493499,2.643831734,0.048361711,-324.8640591,-5.076000923,H7Se2NO6
mp-643702,2.7492,-0.288907191,3.626497069,0.002236699,-45.51569002,-2.528649446,Cs3ZnH5
mp-570530,3.2599,-1.227043486,2.146113524,0,-257.7648832,-4.957016984,Cs(BCl)6
mp-18972,0,-2.979825502,5.060629681,0.025654815,-48.52975134,-6.93282162,Sr2VO4
mp-19310,2.4782,-1.174664459,2.44533676,0.070457392,-133.5256324,-6.069346929,Na3Co(NO2)6
mp-567653,0,-0.412056131,6.846277268,0.010315947,-99.37760179,-7.098400128,Ti3Ni4
mp-531712,0,-1.881467657,6.814564151,0.01477412,-325.3248377,-5.809372102,YbPr11Se16
mp-413,0,-0.798374128,9.032518552,0.001874998,-49.01621461,-8.169369102,UP2
mp-14817,5.3923,-2.846100024,3.171580441,0,-591.6978654,-7.396223317,PrP5O14
mp-780243,0.2004,-2.225886002,4.145193789,0.056368097,-124.4138667,-6.220693336,Li5Ti2Cu3O10
mp-24341,3.2314,-0.192895433,2.11491617,0,-30.61715543,-3.061715543,CsBeH3
mp-762307,4.0498,-3.998582778,5.331805485,9.00E-05,-361.0767774,-9.026919435,Y7HoO12
mp-32531,1.5279,-2.836304233,4.326376403,0.007247508,-207.5735986,-7.413342809,Ba2V3O9
mp-554185,5.6723,-3.128290289,1.44875179,0.013954527,-717.3328005,-7.472216671,AlPO4
mp-29400,0,-1.628104925,3.439917997,0.005936538,-42.51459696,-4.251459696,CsFeCl3
mp-720712,1.7647,-0.629660051,2.22638717,0,-394.1671939,-5.186410446,Cr2H24(IN3)3
mp-674355,0,-0.799563154,4.916949653,0,-76.24224705,-5.445874789,Co(NiS2)2
mp-16929,3.0137,-1.490742105,4.875668519,0,-328.389967,-8.209749176,Pr3Si6N11
mp-1017509,0,-0.248086254,4.157359947,0.037306221,-14.85440978,-3.713602445,MgNiH2
mp-2898,1.5977,-1.480385706,8.682318219,0,-71.63579753,-5.116842681,Ca(AuO2)2
mp-11651,0,-1.931350407,10.01324573,0,-22.47907825,-4.49581565,Yb3SnO
mp-7283,0,-0.57153649,5.412128066,0,-137.9935214,-6.899676071,LaB4
mp-759926,2.9523,-2.916954327,2.523001472,0.049613955,-330.0604583,-7.501374053,Li2Ti(BO3)2
mp-621092,2.572,0.035474455,5.40867607,0.064620419,-158.2245826,-7.192026482,Tl2Pt(CN)4
mp-5777,2.3014,-3.510485217,5.71337634,0.000413478,-40.05339267,-8.010678534,BaTiO3
mp-557016,2.2668,-1.045872311,2.335503653,0.007296475,-154.5687152,-4.83027235,TaP4S6Cl5
mp-698690,3.1211,-2.368067459,2.662123598,0.669235805,-307.5048206,-6.406350429,NaCaGaSi2O7
mp-34011,2.1913,-2.443100445,5.680177063,0.035851855,-84.23559125,-6.016827946,Ca(HoS2)2
mp-764512,1.441,-2.3678734,3.242385599,0.053864022,-316.7709905,-7.039355345,Li5Fe8(BO3)8
mp-11738,2.8296,-1.561570475,2.096002228,0,-73.07446704,-4.56715419,Na3PS3O
mp-17666,0,-3.116054412,7.750533202,0,-178.746965,-8.124862047,Nd3OsO7
mp-759235,0,-2.446858949,3.024603684,0.022104326,-69.18571966,-4.324107479,Li2CuF5
mp-27442,0.1599,-0.766544664,4.206711822,0.060316597,-76.17254948,-3.808627474,RbCrI3
mp-505001,3.593,-1.49879907,3.505802367,0.003483145,-103.8267591,-2.884076641,Rb3ZnBr5
mp-762501,3.4994,-1.46945057,1.841805864,0.022799249,-467.7909854,-5.568940302,CaH8(NO5)2
mp-976793,0,-0.311806655,7.497246443,0.026896948,-15.32069031,-3.830172578,LiEr2Ga
mp-773192,3.2221,-2.728036616,7.123254958,0.033734293,-302.1726005,-8.887429426,Gd2(WO4)3
mp-976847,0,-0.140910328,9.56191868,0.009965479,-22.02575697,-5.506439243,Ni3Sb
mp-24741,3.8476,-1.624789215,1.917672721,0,-163.0563435,-5.095510735,ScH3NCl3
mp-7703,4.003,-3.760703166,8.959121653,0,-111.8615616,-9.3217968,DyTaO4
mp-755026,0.9708,-2.391935582,8.633051296,0,-155.7260772,-7.078458055,La2Pt2O7
mp-972640,0,-0.327761816,7.828932669,0.003050875,-13.17849392,-3.29462348,SmDyZn2
mp-778729,0,-2.557945901,4.088022046,0.038260822,-119.1834827,-6.621304594,Mn3(OF2)2
mp-642740,1.9975,-0.595597595,2.747460071,0,-109.2961035,-4.55400431,CsLi(H2N)2
mp-26675,4.2519,-2.509330377,2.838256754,0.031526553,-494.2377014,-6.864412519,LiSb(PO3)4
mp-780569,0,-3.224124786,6.036623318,0.020018406,-313.3635547,-8.034962941,Ba8Nb7O24
mp-556047,0.5217,-1.05229973,3.855407428,0,-182.2292782,-4.555731955,K2OsCBr5O
mp-19284,0,-0.678841514,6.873881644,0.019531565,-35.22225298,-4.402781623,NiAgO2
mp-557103,3.489,-2.581981873,4.86920915,0,-495.9234255,-7.292991551,B5Pb2ClO9
mp-16531,0,-2.143779764,4.834252435,0.023379971,-113.7074363,-6.317079795,BaLa2FeS5
mp-530953,2.2482,-3.795064122,7.285399464,0.121113771,-548.3667188,-8.568229982,Ho2TiO5
mp-631440,0,0.943670415,10.74690303,1.152441146,-13.07347571,-4.357825237,BiTeIr
mp-867932,0,-0.773454696,6.567462182,0,-48.29959813,-4.829959813,Sm2MgGe2
mp-570791,1.9887,-0.204885496,3.171617791,9.02E-05,-286.150673,-7.530280869,SiC
mp-1565,3.1343,-3.76769427,5.992633875,0.070074027,-113.2137406,-9.434478384,ZrO2
mp-541750,5.4829,-1.937363708,2.764563873,0.072929094,-219.5883897,-5.489709743,CsS2N(O2F)2
mp-540578,4.5412,-2.031293844,3.158651389,0,-89.19227098,-3.185438249,Cs2ZnCl4
mp-6037,3.6054,-3.060252079,6.657957447,0,-68.65389459,-6.865389459,Ba2SmSbO6
mp-774245,0.4973,-1.941824207,4.564603533,0.020029918,-151.481135,-6.311713959,Li5Mn5(NiO6)2
mp-541025,4.4831,-1.79073866,1.840864354,0.018800062,-672.4192631,-5.511633304,Ca3SiH30CSO25
mp-754211,3.788,-3.620460319,5.14378421,0.048968965,-107.5722389,-7.683731346,SrLa2O4
mp-540439,1.0509,-2.482833138,2.756027281,0.061873082,-188.0446993,-7.232488436,Mn(PO3)3
mp-554819,3.5985,-1.928878954,1.834975668,0,-203.2939426,-4.840331966,MgP4(Cl5O3)2
mp-30439,0,-0.2065029,9.083570575,0,-165.8581728,-5.719247337,Ta6Be15Cu8
mp-3579,0,-0.796058481,9.975292368,0,-43.58763457,-7.264605762,UGeSe
mp-758829,4.2126,-3.336906791,3.015721228,0.012495677,-290.0922772,-6.5930063,Nb2OF8
mp-553907,1.5831,-1.122409471,4.213513656,0,-337.0489311,-3.510926365,Rb3AgO2
mp-867334,2.4167,-1.632033575,2.993564166,0,-74.96474769,-5.354624835,KYGeS4
mp-767636,0.3914,-2.286592192,3.917565341,0.073742449,-187.8828477,-6.710101703,LiMn2O3F
mp-17037,3.1412,-3.150212801,3.460389825,0,-222.9941451,-7.433138168,Rb2Ti(SiO3)3
mp-770686,2.1221,-2.717677236,2.956337759,0.069233091,-314.6765656,-6.555761783,Li3MnAl2O6
mp-634751,0.034,-0.648375542,7.380748842,0.059170688,-9.95343781,-3.317812603,YbH2
mp-861978,0,-0.743531829,17.42824469,0,-44.19026703,-11.04756676,Hf2ReIr
mp-18469,5.366,-3.143060738,3.255149106,0,-313.0662059,-7.115141042,SrMgP2O7
mp-777151,3.6264,-2.798685939,2.890717624,0.064880346,-102.5846894,-5.129234472,LiFe2F7
mp-11606,1.0415,-1.995247231,5.120297734,0,-88.37080431,-5.523175269,KHo2CuS4
mp-11547,0,-0.666150717,9.73017223,0,-48.03278226,-5.336975807,YTlPd
mp-19997,0,-0.367894317,7.940948742,0,-46.08836336,-5.76104542,EuIn2Ni
mp-1019740,3.7109,-0.87196243,4.525717953,0.398170561,-61.85183662,-7.731479578,GaB3N4
mp-31163,0,-0.893382775,6.49371557,0,-81.70366505,-6.808638754,Ce2Si3Rh
mp-571363,0,-0.902244667,9.129604466,0.078988516,-13.54106003,-4.513686677,YbSbPd
mp-758731,3.7454,-2.539472588,3.967837723,0.086117005,-359.2227574,-6.414692096,Li3Bi(PO4)2
mp-557130,3.6543,-1.626022953,3.823933901,0,-271.0655994,-4.235399991,Zn2TeCl2O3
mp-861595,0,-0.245215693,7.395468014,0.001912913,-39.81352054,-3.981352054,Pr2CdCu2
mp-769636,0,-1.893205372,3.022828044,0.031874683,-436.3826792,-5.741877358,Li2Cu2(SO4)3
mp-775131,0.3899,-2.224048596,3.851513834,0.044090039,-162.3563672,-6.764848634,Co3Sn(PO4)4
mp-936,0,-0.09757858,12.71103479,0,-7.7594836,-1.55189672,Hg4Pt
mp-9425,0.5552,-2.330695784,5.348113078,0.039395405,-90.57459604,-5.660912253,Sr2GaCuSO3
mp-779435,0.0019,-1.755377184,4.782740088,0.068862713,-84.022728,-6.001623429,Ga3NO3
mp-10904,0,-1.046696736,12.40425241,0,-47.59330221,-5.949162776,AlPt
mp-554160,0.2684,-2.421599803,2.745009121,0.006069672,-303.1346144,-6.315304466,K2CuP2O7
mp-32927,0,-3.507445859,7.786944819,0.499509184,-78.9428085,-7.89428085,Tb2O3
mp-767679,1.3073,-2.30405455,3.677752345,0.087616261,-151.6103974,-6.317099891,Li8TiMn3O12
mp-505700,1.4657,-0.907217879,3.873653039,0,-115.760504,-3.617515749,KInSe2
mp-504946,3.2857,-2.789054593,2.924946395,0.009601747,-327.6636601,-7.801515717,Nb2P4O15
mp-998762,2.6844,-2.618346364,6.53257346,0,-27.1987305,-5.4397461,MnTlF3
mp-555699,0.681,-1.58639296,5.602882232,0,-205.1924635,-5.129811588,BaLa(BiS3)2
mp-758259,0,-2.190383354,4.622511709,0.076103742,-178.8593567,-6.387834168,Li4Ti3Cu3(TeO8)2
mp-28126,1.0387,-0.547620037,3.927299533,0,-92.9856625,-3.320916518,K2GeTe4
mp-978279,0,-0.007810947,2.966893988,0.073053916,-8.94354094,-2.235885235,Mg3Cu
mp-865867,0,-0.25089105,6.296267721,0,-13.65384282,-3.413460705,Li2YTl
mp-23355,2.5498,-0.988141906,3.223881908,0,-78.51068528,-3.271278553,PAuCl4
mp-556442,1.8738,-2.091812708,3.20179612,0,-282.16468,-6.412833637,Tc2O5F4
mp-761568,0.4679,-1.49144077,4.450710876,0.028009704,-57.79389895,-4.816158246,Rb2CoO3
mp-621964,2.1282,-0.953712686,3.938597869,0,-97.11973234,-3.468561869,K2RbBiSe3
mp-769624,0,-1.455733612,4.514072629,0.139738627,-81.17851895,-5.411901263,Li3Co3CuO8
mp-504457,2.6409,-3.526821576,4.421075308,0.01062704,-349.5743736,-8.739359339,BaTi6O13
mp-570816,0,-0.474847595,8.281356421,0.033824853,-71.56219127,-4.472636954,Ho5Ga3
mp-3706,0,-0.80320813,8.287426893,0,-149.2119868,-7.105332706,Ho2Co12P7
mp-676036,0,-1.216188275,3.87315067,0.119864871,-41.21524747,-5.887892496,Ba(FeS2)2
mp-568914,0,-1.744525056,3.13418045,0,-38.40412613,-4.267125126,K2WCl6
mp-530850,0.0222,-2.796129293,7.9152861,0.029232093,-626.6708907,-8.70376237,Ta2CuO6
mp-756458,5.803,-3.783333022,7.797713183,0.017959491,-159.6457002,-7.982285011,ErAlO3
mp-1019589,1.7791,-3.833325393,6.231988366,0.046388004,-220.163032,-9.173459666,Ce3Zr5O16
mp-540950,4.0226,-3.425562211,6.527584644,0,-241.179837,-8.0393279,Ba3SrTa2O9
mp-11718,5.5258,-2.870906688,3.671083293,0,-8.17889598,-4.08944799,RbF
mp-866314,2.7948,-1.393933575,3.140460697,0,-462.6998518,-6.804409585,Ca5Al2(SiN4)2
mp-20335,0,-0.809147901,7.462931783,0,-108.4385059,-9.03654216,MnNbP
mp-13853,0.0944,-0.64358773,7.171876376,0,-110.6702434,-6.916890214,P3Ir
mp-773197,1.4095,-1.722804775,2.294216766,0.049537194,-243.9748979,-6.42039205,Li2Cr4O13
mp-7124,0,-1.187458567,11.1472963,0,-78.68794582,-6.557328818,TbSiPt
mp-2964,2.4272,-1.334154584,2.04998866,0,-23.08032243,-5.770080608,NaNO2
mp-6793,3.191,-3.208796433,6.57761901,0.013373741,-126.1236948,-7.006871934,BaLa2ZnO5
mp-972238,0,-0.539251443,9.353110103,0.000862535,-35.89429271,-8.973573178,Ti2VIr
mp-573376,1.0558,-1.808578495,6.928024654,0,-29.82780565,-5.96556113,Lu2CCl2
mp-755340,2.174,-3.408096427,7.974989961,0,-38.23774131,-7.647548262,Tb2SeO2
mp-753783,2.6407,-2.027036309,3.190624877,0.048575058,-98.93549088,-4.946774544,Li5InO4
mp-3583,0,-1.461076778,11.2551941,0,-50.44496246,-10.08899249,U2AsN2
mp-864661,0,-0.401856671,10.12904399,0,-17.33582968,-4.33395742,ZnCuPd2
mp-22735,0.0601,-0.651302801,3.412531148,0,-39.87158175,-3.322631812,Ca2Sn
mp-38685,0,-2.50332724,6.209958875,0.456721309,-141.0302049,-7.051510245,CeSbO3
mp-764374,2.0342,-2.828053123,3.118426087,0.079761915,-183.4823097,-6.116076989,Li2Mn4OF8
mp-32383,4.1119,-2.456378706,3.04696387,0.024226413,-309.2449652,-6.442603441,Li2NiP2O7
mp-779775,1.3345,-2.934236058,3.359448663,0.003508879,-503.6993914,-6.99582488,Li24Ti11CrO36
mp-31286,0.025,-0.364966275,2.89582135,0.000587302,-52.134678,-2.17227825,K3Bi
mp-581716,0,-0.471104031,9.948973736,0,-46.11644296,-3.29403164,Sr(InAu)3
mp-677192,5.2584,-2.138310403,2.232935459,0,-166.0767153,-5.726783286,K4PH5S3O16
mp-4135,5.1075,-2.689789459,3.112534861,0.001618731,-130.2180788,-6.510903937,RbPO3
mp-648072,4.7413,-2.600606357,2.32616742,0.056469638,-259.4437859,-6.486094646,NaPO3
mp-541787,0,-0.155407846,3.977037665,0,-53.31107945,-1.211615442,Na8Hg3
mp-867178,0,-0.331298459,6.412929752,0,-9.54267896,-2.38566974,PrMgCd2
mp-1751,0,-0.90690541,9.075895388,0,-13.35106091,-6.675530455,ThSb
mp-894,0,-0.565997905,14.74252814,0,-16.92330307,-4.230825768,ZnPt
mp-692,0,-0.258842963,7.804875794,0,-19.25693185,-6.418977283,Tb2C
mp-754505,0.8133,-2.757023332,7.70882999,0.012798462,-131.1897892,-8.745985946,SrTaNO2
mp-22876,1.8986,-0.83331708,3.985386146,0,-35.14334437,-2.196459023,CsI3
mp-510367,3.6944,-2.467711894,3.7463166,0,-158.0059752,-7.182089783,Fe2P2O7
mp-18257,0,0.076891259,7.818178747,0.076891259,-172.2526485,-8.612632425,Fe7C3
mp-780107,1.5433,-2.608809338,2.874381598,0.05944081,-282.8076645,-6.897747915,Li7Cr3Fe(PO4)6
mp-753611,4.5483,-1.571035389,1.483014182,0.004129658,-85.01175765,-4.250587883,PCl3O
mp-623064,0.1833,-1.782039064,3.999214503,0.029944591,-285.3301634,-5.487118528,ReN2(OF4)2
mp-565692,4.0631,-2.479954376,5.264847863,0.00157272,-501.9064492,-6.604032227,K3Bi5(PO4)6
mp-1885,0,-0.946316225,13.24493472,0,-14.50456252,-7.25228126,AlIr
mp-23571,0.7371,-1.303564076,5.759796902,0,-72.92387128,-4.051326182,KBa4Bi3O
mp-17504,0.7976,-0.802969309,4.630912025,0,-160.462973,-4.457304806,Sr3(GeAs2)2
mp-744347,2.5428,-2.317723345,2.786742084,0,-126.640791,-5.276699626,RbVH4(OF2)2
mp-641010,0.8808,-1.749066729,6.138638637,0,-243.1206258,-6.753350718,La4Te3N2
mp-775869,1.429,-2.284732419,4.081118826,0.072767958,-150.8588516,-6.857220529,Li4Cr5SbO12
mp-1016820,0.8455,-1.892157194,4.863389733,0.629154849,-27.75376395,-5.55075279,MgSnO3
mp-530546,5.5612,-3.278453836,1.636875093,0.01069718,-1280.529489,-7.904503019,SiO2
mp-570774,0,-0.421636218,5.209856424,0.042766015,-123.049497,-6.836083165,Zr5Al4
mp-675379,0,-1.887007392,7.437931132,0.529933009,-106.8303138,-7.6307367,Li2Ta2O3
mp-849545,0.3935,-2.566810357,4.143844153,0.078286944,-235.8802208,-6.552228355,Mn12O7F17
mp-974620,0,0.064982265,1.554980977,0.064982265,-7.61240164,-0.951550205,Rb
mp-760170,1.9994,-1.899807677,4.861699059,0.045850158,-316.0080843,-5.448415246,Sn13(O5F3)2
mp-1013830,0,-2.085906571,3.437898004,0.037685179,-259.874593,-6.496864824,NaCo3P3O13
mp-679984,0.6547,-1.700009751,3.39415254,0,-271.1147567,-3.986981716,Cs4Ru2Cl10O
mp-772635,0,-1.566370455,4.716183982,0.061435227,-158.6061221,-6.608588419,Mn3Cr2Co3O16
mp-14386,3.8623,-3.33843155,5.500971016,0,-730.7272266,-7.611741944,Ba3Lu(BO3)3
mp-10851,5.5318,-3.276633623,2.371524433,0.012517393,-71.12414525,-7.902682806,SiO2
mp-774347,0,-2.208440231,2.858561295,0.067729395,-237.1417267,-6.974756669,Mn3Fe(PO4)6
mp-1019519,0,-1.455938126,2.898849839,0,-30.47551308,-3.809439135,Ba2NaO
mp-406,0.5894,-0.462522752,5.472510161,0,-4.98219499,-2.491097495,CdTe
mp-862750,0,-0.487415626,6.318378705,0,-34.86153447,-4.357691809,SrNiSn2
mp-12647,3.6035,-3.584311839,6.799540199,,-102.4452851,-8.537107087,TbNbO4
mp-558842,4.793,-3.635792999,6.327439445,0.004447279,-882.112113,-8.16770475,Sm7BP2O17
mp-865176,0,-0.08799824,10.77803409,0.073976741,-22.60409758,-5.651024395,HfCu3
mp-772842,2.8031,-2.141258797,3.619620333,0.020822925,-209.3028024,-5.813966732,Na2Ge2O5
mp-673168,3.3923,-2.60853254,1.466435398,0.680618476,-65.1112355,-7.234581722,SiO2
mp-22019,0,-2.418800438,7.646112652,0,-248.6324715,-6.215811787,Yb3Sb5O12
mp-22418,0,-0.504608485,9.14079347,0,-62.09575075,-5.64506825,Sr3(SnIr)4
mp-867193,0.4139,-0.852999131,7.478779587,0,-13.95196981,-3.487992453,Sr2BiAu
mp-2762,0,-0.796529373,14.35964067,0,-53.1692521,-8.861542017,YIr2
mp-675892,0.5739,-0.459874041,6.52600909,0.109275206,-51.14461822,-3.653187016,Yb(SbTe2)2
mp-976118,1.4435,-0.71810688,4.203483895,0.017543139,-90.19091615,-3.75795484,HgH6I3NO
mp-753305,0,-3.066900949,3.670819674,0.075603676,-107.2087692,-7.657769225,LiTiSiO4
mp-758281,5.7824,-2.646615519,2.784325125,0,-424.6795221,-7.077992035,RbB2P2HO9
mp-705861,2.1539,-3.087070499,2.049861147,0.119137177,-582.3567649,-7.016346565,Rb10NaAl11Si13O48
mp-778748,3.0694,-2.300944184,3.019253363,0.071333351,-445.9474707,-6.19371487,Li3FeBO4
mp-707227,3.6542,-1.99272452,2.14879969,0.083311961,-291.132698,-5.391346259,K5H3S5O14
mp-1871,0,0.057131664,7.20957973,0.057131664,-51.94748066,-8.657913443,Fe2C
mp-2343,0,-0.184930788,3.508688859,0,-7.77285973,-2.590953243,Mg2Sn
mp-733581,3.5309,-2.011953592,4.452824738,0,-483.8435521,-6.048044401,PrH(SeO3)2
mp-23611,1.9258,-2.804848198,8.856647746,0.029960442,-110.7376093,-7.909829236,BaTa2Bi2O9
mp-572833,2.1903,-1.464897489,3.362217759,0,-265.7840844,-4.746144364,Cs3Sm(PS4)2
mp-30302,1.9597,-1.827606512,7.588473395,0.0114586,-50.03706863,-8.339511438,HfBrN
mp-7288,2.0315,-3.456288206,3.715626552,0,-83.72752812,-8.372752812,Sc2SO2
mp-1001827,0,1.229704521,15.74322839,1.229704521,-15.62989143,-7.814945715,IrC
mp-865876,0,-0.63392364,10.69039844,0,-39.90511705,-9.976279263,Ti2TcOs
mp-24073,3.2235,-2.287872665,5.379703312,0.017519785,-104.9939455,-7.499567537,Gd(HO)3
mp-974545,0,0.742015954,10.34086587,0.742015954,-21.50398572,-5.37599643,ReSn3
mp-11007,2.127,-0.888697119,3.975220586,0,-89.29629188,-4.464814594,CaPSe3
mp-30986,3.3649,-1.973072149,3.719503793,0,-152.8161287,-5.457718882,Zn3S2O9
mp-560066,3.44,-2.351709484,2.881771274,0.036885601,-177.2509247,-4.923636796,SbSO2F5
mp-2292,3.532,-3.89837342,5.839899979,0,-336.1943659,-8.404859148,La2O3
mp-1018815,0,-1.066264686,8.348168065,0,-34.5387556,-5.756459267,NdSbPd
mp-679975,2.8487,-2.184419503,3.621292858,0.023704503,-341.3041819,-5.332877842,KGaO2
mp-971909,0,-0.310906751,10.53552531,0.034919359,-36.10175936,-4.51271992,ZnPd3
mp-756553,0,-1.797428621,5.111866484,0.04780454,-108.3051568,-5.415257842,Li5Cu3(SbO5)2