id,band_gap,formation_energy_per_atom,density,e_above_hull,energy,energy_per_atom,pretty_formula
mp-557143,0.1617,-1.498043032,5.92992421,0,-276.4844091,-6.28373657,Tl2Cu(CO3)2
mp-631562,0,0.908164149,8.744386577,0.926299296,-12.65297294,-4.217657647,SiBAu
mp-769001,3.47,-2.486996947,3.274072879,0.058434258,-378.7814205,-6.530714146,Li6Sn2B4SO16
mp-27768,0,-0.443941919,14.61665423,0,-138.2640918,-9.876006559,Co(BW)3
mp-694629,1.1944,-2.515146322,2.910368735,0.111138906,-507.9054056,-7.360947907,V3(PO4)4
mp-971950,0,0.143014313,6.973677955,0.143014313,-7.25582067,-1.813955168,Zn3Sn
mp-314,0,-0.697974213,10.50014809,0,-69.93015017,-6.993015017,Th3Ge2
mp-557826,1.9176,-3.247677952,5.338208894,0.001597495,-844.2701851,-8.442701851,Li3U7(PO7)5
mp-755796,0,-1.006661647,2.664569458,0.266560926,-48.47584295,-4.847584295,Li2FeS2
mp-39542,4.5843,-3.37134981,3.380747075,0.02106871,-56.73358518,-5.673358518,KRb2ZrOF5
mp-616577,1.8788,-1.519124104,3.477752688,0,-174.2773089,-5.446165903,Sr3BCNCl2
mp-759657,0.4488,-2.560835533,3.198344067,0.055885368,-351.6389309,-4.395486636,Li3CuF6
mp-28675,0,-3.008394472,5.544147837,0.000345266,-438.2028901,-8.942916125,Ba2Nb15O32
mp-1013554,0.5117,-0.856812955,3.897567117,0.015559457,-22.69849139,-4.539698278,Sr3PN
mp-779820,0.0514,-2.637105534,2.777122649,0.074222926,-232.7359309,-7.052603966,Li3Fe4(Si3O10)2
mp-557111,0,-2.501461952,5.252932947,0,-404.5846365,-6.743077275,Sr3CaRu2O9
mp-865804,0,-0.544547881,12.47647551,0,-30.00035133,-7.500087833,TaZnRh2
mp-1091,0,-0.421734333,15.85820643,0,-218.4817537,-3.901459888,SmAu6
mp-768185,2.2457,-3.412118598,4.340559146,0.047633548,-593.5983739,-8.360540477,Ba4Li4Ti19O44
mp-540544,0,-1.808779556,7.476174444,0,-205.9072572,-7.919509893,U8CrS17
mp-18303,1.2003,-1.311907975,6.215403955,0,-125.146736,-5.214447335,Nd3CuSnSe7
mp-676666,2.1299,-2.711924499,4.995137735,0,-73.83636147,-6.153030123,Rb2CeO3
mp-631481,0,1.583072864,5.040589428,1.583072864,-16.91644177,-4.229110443,NaSrNb2
mp-644280,0,-0.47961657,15.04841472,0,-21.162085,-5.29052125,GaCuPt2
mp-9132,0,-1.420263908,6.593950229,0,-149.1298383,-7.456491916,Ta3SnS6
mp-505164,0,-0.394862872,7.969474749,0,-135.6632153,-5.652633969,NbTe4Ir
mp-1001113,0,0.49244523,3.047456367,0.49244523,-19.73148774,-4.932871935,Si
mp-13339,0.6232,-1.96476963,7.31829951,0.0091304,-53.62393463,-6.702991829,EuCuTeF
mp-8793,0,-0.389332694,7.029256849,0,-85.87762418,-6.605971091,Nd5(FeB3)2
mp-780192,2.5866,-2.056354879,2.505205681,0.047387074,-210.9436147,-5.273590367,Li5FeO4
mp-22739,0,-1.31060148,4.718944548,0.054588602,-74.20223978,-6.183519982,BaFe2S3
mp-626885,1.8955,-2.592844793,6.52927344,0.081609467,-105.6568877,-7.546920552,U(HO2)2
mp-18953,2.3785,-2.715959234,2.959675641,0,-72.65058584,-6.054215487,NaV(OF)2
mp-769590,0.9958,-2.434061937,3.810113781,0.057020887,-203.0389077,-7.25138956,Li2V3CrO8
mp-1002104,0,-1.191140391,10.89076257,0,-26.73140243,-6.682850608,LaPt
mp-4316,0,-0.670573264,6.541396924,0,-25.88911613,-5.177823226,Sr(NiAs)2
mp-752546,0,-3.284400927,3.611892058,0.09973755,-110.0050156,-8.46192428,LiTi4O8
mp-780862,0.1527,-2.62898602,4.065341604,0.065001859,-196.0938997,-6.536463322,Mn2OF3
mp-17395,0.7755,-2.830178736,4.337000205,0.012514328,-264.6945879,-7.785134937,TmCu(BO2)5
mp-579628,0,-0.305282683,9.73382231,0,-62.89922864,-10.48320477,Gd2Tl
mp-2083,0,-0.2864418,10.68576004,0,-17.74194718,-5.913982393,Sn2Ir
mp-5014,0.5629,-0.330003264,6.126456313,0.022958269,-45.52957669,-3.794131391,CuAgS
mp-556382,0.8961,-3.4752861,5.702972477,0,-46.78178134,-7.796963557,EuClF
mp-850231,0,-2.268698676,3.915532951,0.029837164,-94.46666826,-6.747619161,Li2TiFe3O8
mp-27377,3.1866,-3.286661711,4.176195978,0,-166.9158253,-7.948372634,K4Zr5O12
mp-21238,0,-0.699740106,8.898155808,0,-56.93880499,-7.117350624,ThSi
mp-18509,6.2458,-3.333839858,2.661208201,0,-146.0607438,-5.216455135,KBe3ZnF9
mp-541325,0,-2.515495529,6.242197986,0.023247381,-162.9235398,-6.266289993,Sr2HoGaCu2O7
mp-862927,0,-0.458510294,9.644574798,0,-9.09585712,-2.27396428,LiPmHg2
mp-27452,1.5674,-1.657241031,2.100949546,0,-81.86961494,-3.721346134,Al2PdCl8
mp-9954,0,-1.006465923,10.50738383,0,-66.4600056,-8.3075007,HfAs
mp-759441,1.4952,-2.290503744,2.923039132,0.084208864,-520.7230577,-6.509038221,LiCu(PO3)2
mp-721236,2.3384,-1.272253983,2.07009833,0.023274064,-214.5761693,-4.291523385,Li10Sn(PS6)2
mp-1019266,0,-1.230908954,7.389148905,0,-29.38781246,-4.897968743,SmTe2
mp-780172,3.1122,-3.070755239,7.970197195,0.003438261,-260.3762399,-7.232673329,Tm2TeO6
mp-773016,5.3442,-3.150915412,4.593534006,0.063898468,-291.0034107,-7.657984492,Lu2P4O13
mp-7440,0.8676,-0.373414702,2.052499669,0,-59.96020222,-3.747512639,NaP
mp-626073,4.574,-2.062341448,2.280883323,0.076329077,-324.663591,-5.797564124,Al(HO)3
mp-975664,0,-0.380872753,7.061331398,0.118749949,-20.1568252,-5.0392063,NdGe3
mp-756593,2.2021,-3.395001923,6.024090288,0.083146071,-107.9362231,-8.302786388,Ta3(OF)5
mp-9841,5.7111,-2.795962182,3.682003333,0,-471.1056696,-6.928024553,Er2(SO4)3
mp-30369,0,-0.577852345,4.566830983,0,-236.9236152,-2.961545191,Ca7Au3
mp-24402,5.2441,-3.121909755,3.32030562,0.004279273,-254.5788622,-7.071635062,CaAlSiHO5
mp-865315,0,-0.220910391,11.24428593,0,-22.75640509,-5.689101273,Lu2MgOs
mp-783907,4.0445,-2.47621944,2.871067539,0.037094725,-330.980947,-6.895436395,LiMnP2HO7
mp-3006,1.5818,-0.737249537,3.072073253,0,-63.65360681,-4.896431293,P2Pd3S8
mp-867201,0,-0.383062757,9.030878259,0,-6.89378506,-1.723446265,CaInHg2
mp-1339,0,-0.584144505,18.29711782,0.001045748,-39.04119786,-9.760299465,NbIr3
mp-829,0,-0.87842974,7.599548117,0.033031357,-10.68310461,-5.341552305,AlPd
mp-850757,1.593,-2.521132707,4.107186574,0.064494864,-102.3997057,-5.688872537,Fe3OF5
mp-22708,0,-0.722151983,10.19265759,0,-134.5811987,-6.729059934,Th3Co3Sb4
mp-542428,0,-1.007403523,5.31805748,0.001009287,-167.1989329,-3.980926974,Ba11Sb10
mp-1006246,0,0.082037113,7.508879493,0.082037113,-19.7552221,-4.938805525,CeSm3
mp-12892,0,-0.300980568,2.603688034,0.0805555,-13.75587083,-4.585290277,CaSi2
mp-999393,0,0.505773715,7.490752202,0.530937274,-37.00015589,-9.250038973,NbCr3
mp-39626,2.0439,-2.861164314,6.854140753,0.053643184,-76.66780441,-7.666780441,SrLaMnWO6
mp-30221,0,-1.261594074,4.269036662,0,-115.2596814,-4.433064671,Ba5P5I3
mp-979751,0,-0.282129877,10.32070663,0.019131826,-37.80076574,-9.450191435,TaTiFe2
mp-35249,3.7274,-4.020394172,8.501329464,0,-206.3007921,-9.377308734,Sm2Hf2O7
mp-542840,3.3503,-2.422647322,6.318074414,0,-392.5389657,-6.542316094,In2Si2Pb2O9
mp-780894,0,-1.979918207,2.936420813,0.013909474,-365.2217637,-6.29692696,Na6Ni2P(CO4)4
mp-554714,0,-3.452625574,8.20664456,0,-284.7286654,-10.16888091,Np2O5
mp-760092,3.0222,-2.151924297,4.470104552,0.068950601,-259.681351,-5.410028145,SbOF
mp-775200,0.2713,-2.167850315,3.702237414,0.042185727,-163.4755392,-6.8114808,MnNi(PO4)2
mp-18963,0,-1.409522389,5.354906298,0.00222554,-56.71860002,-6.302066669,Ba2Mn3(AsO)2
mp-29048,2.5176,-2.132824751,6.658228298,0,-82.6319545,-5.902282464,Sr(BiO2)2
mp-28091,3.0178,-1.732496026,5.929032474,0,-308.8945726,-5.515974511,In2(TeO3)3
mp-541332,0,-2.497196665,5.738476135,0.015329581,-163.1448289,-6.27480111,Sr2LaGaCu2O7
mp-18776,2.7479,-2.761353329,3.459273781,0.003765914,-156.0353416,-7.092515526,CaCoP2O7
mp-984766,5.1281,-0.449070345,1.14685795,0.012458386,-92.43403014,-4.201546825,Ca(BH4)2
mp-17166,4.8199,-2.792526971,2.385929552,0,-379.2901279,-7.294040922,K2B4O7
mp-578882,1.7238,-0.668854819,5.941180844,0.026004534,-113.4685737,-3.545892928,SbPb2S2I3
mp-21336,0,-0.843525564,11.64010797,0,-113.0226362,-9.418553017,TaFeP
mp-1018179,0,-0.30800636,13.71313132,0.011008077,-11.21936552,-3.739788507,AlAu2
mp-20588,0,-0.717059258,5.772806652,0,-52.70032555,-6.587540694,ZrCuSiP
mp-982387,0,-0.380436763,8.746797139,0,-12.59118911,-3.147797278,Pm2ZnHg
mp-27802,1.3521,-1.343249225,4.638070313,0,-170.376837,-4.732689918,BaSn2S3
mp-569935,0,-1.508855397,6.387444998,0,-73.52641511,-8.169601679,La3(BN2)2
mp-17676,2.0801,-2.540217879,4.103488196,0,-163.7344123,-5.116700384,Sr2SnS3F2
mp-1018107,0,-0.88138932,5.981691382,0,-17.47652018,-5.825506727,ZrTe2
mp-510408,0,-1.780175614,4.955172303,0.033781866,-42.54351267,-7.090585445,MnO2
mp-5419,0,-0.494046623,9.902985368,0,-18.80932333,-4.702330833,LiGa2Ir
mp-29030,3.2158,-3.163453878,7.873754591,0,-237.0103799,-5.386599543,ThTl3F7
mp-703316,2.5942,-0.443836736,3.348957252,0,-141.0071418,-3.525178544,LaMg2H7
mp-20612,0,-0.275120862,4.24453018,0.026432627,-31.94171023,-5.323618372,NaMnAs
mp-559730,2.9729,-1.664791699,5.374214842,0.000174128,-475.1628953,-5.399578355,KGa(Te3O7)2
mp-528,0,-0.005003761,8.666643022,0.044057065,-44.31991993,-2.332627365,U2Zn17
mp-662513,0,-1.037511149,3.590399953,0.02143761,-144.4206503,-4.011684731,Te2WCl6
mp-699543,2.3333,-1.82803284,3.761725028,0,-187.489212,-6.048039097,Na2Co5Mo4(ClO4)4
mp-13549,0,-0.574512242,10.22603274,0,-48.81723365,-4.068102804,CeZnAu
mp-762600,0,-1.838061466,4.191226628,0.115333697,-166.3976009,-5.942771461,Li6Fe7O15
mp-18721,3.2709,-2.60517422,3.589660834,0,-84.01820967,-7.638019061,Mn2P2O7
mp-767709,2.5799,-2.751400266,3.334168982,0.016269842,-268.6329017,-7.462025046,Li2Mn3Si3O10
mp-7589,2.1245,-2.00561052,2.989886515,0.00645969,-41.20826864,-5.15103358,Mg2NF
mp-733729,3.3692,-2.332465735,4.00452758,0,-436.3375151,-6.060243265,RbInPHO5
mp-5402,0.0501,-1.748451339,8.430357207,0.009360297,-71.76202655,-5.125859039,CaTl2O4
mp-7104,6.8954,-3.740798124,3.966020831,0,-25.86332587,-5.172665174,CsCaF3
mp-10129,0,-0.512783212,9.42420016,0,-74.69286011,-6.224405009,TmNi4B
mp-9086,2.1617,-2.154231311,5.070148163,0.001817836,-21.04659627,-5.261649068,CsDyS2
mp-865219,0,-0.602795728,12.89712937,0,-29.75191672,-7.43797918,Dy2IrRu
mp-4851,3.0685,-2.657842699,4.629144454,0,-346.0476026,-6.179421474,Sr(GaO2)2
mp-763229,0.937,-2.802727065,4.11703084,0.04802948,-171.6188149,-7.150783954,VOF
mp-556031,3.6367,-2.378724329,3.714916839,0.011587105,-149.1785151,-6.780841595,Sn2P2O7
mp-193,0,-0.135833437,6.968515843,0,-21.6018365,-7.200612167,Zr2Cu
mp-20898,0,-0.367273617,9.502508091,0,-14.48374385,-3.620935963,DyInAg2
mp-6092,0,-0.51119636,7.858248287,0,-41.83368258,-6.97228043,TbNi2B2C
mp-27739,4.0652,-1.805150927,2.945636931,0,-310.9168773,-5.979170718,As2S2O9
mp-754444,0.2502,-0.70779332,5.85438596,0.089326662,-57.58077596,-4.112912569,Zn(AgO2)2
mp-3299,0,-0.828984611,5.229497442,0,-33.56822685,-6.71364537,Sr(FeP)2
mp-20958,0,-2.982397865,7.042930034,0.024341756,-76.40210585,-7.640210585,Ba2LaReO6
mp-707485,0.5323,-1.69402007,3.534512849,0,-317.118559,-5.467561362,K4Cu3As4(HO8)2
mp-570538,3.9425,-0.380099615,1.809012684,0.001852323,-26.71621655,-6.679054138,NaN3
mp-975176,0,-0.202119788,5.849600459,0.026616115,-6.41885617,-1.604714043,Rb2HgAu
mp-769540,0,-2.259577023,2.637689055,0.00767769,-318.7652457,-6.929679255,Na3Mn2P2(CO7)2
mp-865651,0,-0.379346504,7.605625415,0,-17.73383784,-4.43345946,Y2TlCd
mp-6245,3.6577,-2.888961092,3.403099901,,-308.0785852,-7.001786027,K5Nb4O12F
mp-2868,0,-0.29879645,10.40634456,0,-371.0103509,-9.049032949,Th11(Ru2C3)6
mp-1008865,0,-0.346888986,7.841662404,0,-7.63523124,-2.54507708,NdCd2
mp-643573,1.6702,-0.335635519,2.304762814,0,-80.68480295,-3.667491043,Mg3MnH7
mp-760370,2.9851,-2.342109465,8.444710957,0.023489111,-401.5441059,-5.283475078,Bi6O5F8
mp-1009732,0,0.893803479,9.146345807,0.893803479,-13.51180315,-6.755901575,RhN
mp-776406,0,-1.990084548,4.168221737,0.013917882,-174.4595091,-6.230696753,TePO5
mp-1453,0,-1.837305653,6.916829972,0,-11.92920629,-5.964603145,NdSe
mp-1020616,4.4904,-2.924064391,2.963174463,0,-544.8572794,-6.486396183,RbMgPO4
mp-625154,1.6164,-1.22186058,4.167626182,0.081578705,-151.3222441,-5.044074803,H8PtO6
mp-973165,0,0.39496434,11.13267792,0.39496434,-46.58229065,-5.822786331,Lu3U
mp-779360,1.5024,-2.812182793,4.098139523,0.038573752,-171.8457524,-7.160239681,VOF
mp-776280,1.0515,-2.148722671,4.336491778,0.053003931,-373.353821,-9.333845526,Ti2N2O
mp-22585,0,-0.469466739,10.72598305,0,-82.90008905,-6.908340754,GeRh2
mp-775935,3.8575,-3.750626981,4.410980573,0.087141316,-84.75669986,-9.417411096,ZrO2
mp-998432,0,-2.390932386,5.059126857,0.103156688,-36.99467916,-7.398935832,CaTcO3
mp-19413,0,-2.638740153,7.336640735,0.051336468,-90.18966197,-7.515805164,AlWO4
mp-38818,0,-0.862740534,9.032455458,0,-51.95791656,-8.65965276,HfNbB4
mp-568634,0,-0.447266094,7.396537398,0,-100.5202493,-3.866163433,Yb3(Ga2Ge3)2
mp-676290,1.3711,-0.756583914,2.872067517,0.271410933,-9.99043941,-3.33014647,RbHS
mp-982321,0,0.763907822,10.72931309,0.763907822,-28.98101682,-3.622627103,Yb3W
mp-776692,3.0811,-2.857388528,3.386589466,0.006177757,-207.5174824,-5.18793706,LiFe2F7
mp-28198,2.5376,-0.886860291,3.705752819,0,-90.99473707,-2.527631585,RbInI4
mp-22792,0,-0.210990853,7.525434224,0.033153522,-18.1127789,-6.037592967,MnTePd
mp-556592,2.0452,-0.740220952,4.306583401,0,-90.54700707,-4.527350354,TlBi(PS3)2
mp-6674,3.8734,-3.081048235,6.270384495,0.003550597,-144.1149509,-7.205747544,LiLa2SbO6
mp-31515,0,-2.500649242,6.732880077,0.036560204,-71.41294183,-7.141294183,Sr2CoReO6
mp-10470,0,-0.865163844,8.27982299,0,-101.9235432,-8.493628596,NbSiRh
mp-29789,5.7305,-1.107300037,3.314033186,0,-153.4424093,-4.795075289,Lu(ClO4)3
mp-505499,0,-0.417878841,8.191303551,0,-169.3442022,-6.513238548,Ta4BTe8
mp-505357,1.4358,-0.540493642,4.378035995,0,-150.1103666,-3.127299304,InSeI
mp-510274,0,-0.882330355,7.296628347,0,-298.1413725,-8.281704793,Zr2Si4Ru3
mp-972424,0,-1.178441683,14.34940353,0,-22.98372708,-5.74593177,TbYbPt2
mp-769049,3.7851,-2.813986776,3.618810568,0.083061669,-131.27339,-4.688335358,BaLaCl5
mp-14765,0,-0.636497856,6.605571524,0.006542871,-205.9727762,-6.058022829,Ba(Ni5P3)2
mp-541738,1.0526,-0.910811977,4.353178939,0.014704735,-96.76495745,-3.455891337,Cs3Cr2I9
mp-9716,0,-3.019208355,3.701937878,0.073194366,-84.70188259,-8.470188259,TiBO3
mp-764415,0.515,-2.318557951,3.510072933,0.028005358,-508.4865311,-7.062312932,MnFeCo(PO4)3
mp-768041,1.9105,-2.599471384,3.295272609,0.004530114,-200.0284205,-7.143872161,Li4MnCr3(PO4)4
mp-18474,0.0006,-0.154307636,6.720649846,0,-101.0074916,-3.366916387,Ag8GeSe6
mp-554649,2.4077,,3.120563572,,-83.18990031,-4.159495016,Na3NiF6
mp-1853,1.8229,-0.467960749,2.82309861,0,-177.4892274,-5.220271393,Sr3P14
mp-971775,0,0.119695214,10.01627709,0.119695214,-11.89846176,-2.97461544,ZnPb3
mp-774306,0.6754,-2.44495964,3.255853861,0.059256345,-222.5328957,-6.954152992,LiCrPO5
mp-707105,5.8871,-2.603116215,2.233796612,9.61E-05,-559.6900018,-6.996125023,Li3B5(HO5)2
mp-780874,1.026,-1.923554542,3.307195792,0.087471003,-108.201459,-6.011192164,KLi2Mn2O4
mp-755856,2.6409,-2.619072276,4.921861394,0.070200659,-84.91446812,-6.065319151,Mg2SnO4
mp-761090,2.7882,-1.689005537,4.135551607,0.036819564,-259.3258708,-4.630819121,Na3BiO3
mp-989568,0,-2.98289015,4.062206067,0,-43.0857189,-4.30857189,Cs2NaMgF6
mp-558977,0.8793,-2.55212611,5.638369936,0,-391.7746666,-6.529577777,LaErS3
mp-1020707,4.0844,-2.66900991,3.13636051,0,-456.4472512,-7.1319883,Rb2GeB4O9
mp-555565,0,-0.824289466,8.378068091,5.17E-05,-57.62056593,-4.432351225,Ag5(PbO3)2
mp-998427,0.3726,-1.639428831,5.443771705,0,-116.551032,-5.827551602,BaZrSe3
mp-696485,3.4407,-2.223513967,3.299276727,0.016040832,-267.2911252,-5.140213946,Na2TeHSO5F3
mp-12961,0,-0.876217386,6.101195508,0.013308564,-54.06684431,-6.007427146,YAlPd
mp-767604,3.2491,-2.893506832,4.505356178,0.004097719,-542.9138564,-7.86831676,Li12Nb14ZnO42
mp-4138,3.2778,-2.088113754,3.308963915,0,-145.8658665,-6.077744437,Rb2CO3
mp-772787,3.297,-3.162611114,3.881461232,0.000648313,-329.6780063,-8.675737008,Gd2P4O13
mp-949,0,-0.088027585,15.54480533,0,-26.68575682,-6.671439205,CoPt
mp-23496,2.2789,-0.712263601,4.675123138,0.000338129,-61.5339861,-2.563916088,CsAg2I3
mp-23207,0.964,-0.56689016,2.040171622,0,-91.25881472,-3.802450613,ClO2
mp-626295,3.5473,-1.459358962,2.097619241,0.038869075,-270.8544483,-5.015823116,Ba(H8O5)2
mp-770506,1.4458,-2.543286409,3.304643585,0.060595736,-239.7031723,-7.990105743,V5BO9
mp-606691,2.3917,-3.107681356,4.338640949,0,-644.9997984,-8.06249748,KU2P3O14
mp-555700,5.484,-3.280698975,1.807503616,0.008452041,-379.5239115,-7.906748157,SiO2
mp-30412,0,-0.069018344,11.97672398,0,-58.61644319,-3.663527699,Pb3Au
mp-766249,1.4649,-1.503557905,7.996756401,0.049273155,-338.598161,-5.209202477,Bi24Br10O31
mp-11605,1.0006,-1.998128773,4.907195895,0,-88.6145206,-5.538407538,KTb2CuS4
mp-12464,0,-0.279142417,8.796975996,0,-51.6819783,-5.16819783,Co(PdSe)2
mp-3879,0.8405,-3.404017054,5.204328185,0,-94.21586776,-5.234214876,Ba2CuF6
mp-501,0,-0.807499227,7.840250759,0.008408437,-85.02781457,-7.085651214,TaSe2
mp-865355,0,-0.385235111,11.15968317,0,-11.41624982,-2.854062455,Zn3Pt
mp-865779,0,-0.30146302,9.531789078,0.009165031,-23.64320284,-5.91080071,Ga2CoRu
mp-540611,5.4491,-2.936203601,3.470471719,0.00732727,-523.9578102,-7.277191809,RbNd(PO3)4
mp-540760,1.4434,-1.185992824,1.929660809,0,-143.0414451,-3.576036127,FePCl8
mp-571107,0,-0.570222179,9.489818224,0,-127.1590965,-5.298295685,Er4InRh
mp-974789,0,0.042564933,3.080490393,0.173379898,-6.88873512,-1.72218378,Rb3Sn
mp-27018,2.4403,-2.374944647,3.784219358,0.055524935,-324.5961635,-6.762420073,SnPO4
mp-3378,4.1716,-3.833919076,7.48759862,0,-173.9484885,-8.697424425,SrHfO3
mp-562764,2.5247,-1.848150873,3.670163874,0,-259.1586478,-5.399138497,Ba7B4S13
mp-1006880,0.0798,0.824370604,8.574937354,0.824370604,-8.92803032,-4.46401516,BiB
mp-570070,0,-0.860481977,10.55652787,0,-99.90858772,-5.876975748,Yb4Ge6Rh7
mp-9636,5.0883,-2.945332014,3.846453982,0,-37.10869319,-4.638586649,CsSbF6
mp-744801,2.676,-1.609487872,1.896204112,0.002659489,-1019.519906,-5.309999509,RbVH24(SO10)2
mp-10045,0,-1.011319241,4.893884161,0.008402137,-63.31409492,-3.957130933,Ba5As3
mp-541240,3.7777,-2.423730629,4.509059602,0,-208.699704,-5.2174926,Sb3O2F5
mp-973111,0,0.038064222,6.741289591,0.038064222,-5.42758823,-2.713794115,In
mp-865604,0,-0.021416597,0.816177996,0.000218935,-11.27269779,-1.878782965,Li5Mg
mp-540482,1.2408,-2.522657435,2.403233622,0.16527795,-155.3708067,-7.062309394,LiCrP2O7
mp-772199,0.6095,-1.534109215,2.990234534,0.041584934,-97.20245791,-3.24008193,Rb3ClO
mp-31924,1.229,-2.585231188,3.14214329,0.010640145,-312.9136394,-7.111673623,LiMnP2O7
mp-709350,3.2627,-2.487207971,4.167470251,0,-732.4148671,-6.313921268,Sr5As5HO18
mp-12011,2.4464,-1.636357932,3.577531885,0,-71.34544977,-5.096103555,KTbGeS4
mp-560608,1.8331,-2.565052966,5.501303519,0.002347627,-658.0222183,-6.580222183,Nd10S14O
mp-10032,0,-0.086624143,11.5270252,0,-41.44411153,-6.907351922,Ge2Os
mp-642991,4.0308,-1.803992163,3.862910917,0.076813021,-90.83348468,-6.987191129,TbH3(CO2)3
mp-849478,0.0109,-2.424786142,4.268494727,0.073639426,-239.1849442,-6.644026228,Mn6O5F7
mp-999177,0,-0.606004936,7.119590967,0,-17.91805526,-4.479513815,SmGa
mp-554543,5.4402,-3.276364324,1.780883742,0.012786692,-189.6579242,-7.902413507,SiO2
mp-21433,0,-0.685036002,7.208533262,0,-38.40489251,-6.400815418,TbTiGe
mp-817,0,-0.156608745,12.04902784,0,-12.20546076,-3.05136519,TmTl3
mp-779363,0.9161,-2.882513731,3.614861361,0.032190472,-192.9350036,-6.029218863,Cr4OF11
mp-23091,1.7763,-2.471007048,7.168422031,0.000144307,-61.9433401,-6.19433401,Ba2BiSbO6
mp-756272,4.3645,-3.924349722,7.43167818,0.040265871,-167.3321185,-8.366605923,LaDyO3
mp-18352,3.8435,-2.16647141,5.988796431,0,-316.7618066,-6.599204305,HfTe3O8
mp-723426,5.1291,-1.96672631,1.905664634,0.032020373,-753.0959214,-5.705272132,NaLiP2(H4O5)2
mp-1518,0,-0.65110255,11.04865186,0,-30.57954719,-7.644886798,CeRh3
mp-3467,0,-0.442239714,9.730325848,0,-48.52489794,-8.08748299,SmB2Ru3
mp-555965,1.9427,-2.151016519,5.659858582,0,-486.2551035,-5.788751232,Li2ZnSn3O8
mp-571621,3.3905,-0.869731753,3.749225301,0.001193745,-495.0307826,-7.27986445,Ba3Na2(CN2)4
mp-22913,0.4859,-0.25404135,5.147663767,0,-6.23638975,-3.118194875,CuBr
mp-779904,2.8499,-0.85495964,4.978287374,0.050240833,-158.8220115,-4.411722541,Ni(IO3)2
mp-676077,1.9558,-3.843824923,6.674406683,0.053578307,-119.1844465,-8.513174749,Ce3Nd2O9