id,band_gap,formation_energy_per_atom,density,e_above_hull,energy,energy_per_atom,pretty_formula
mp-865213,0.5637,-1.149682474,5.936627113,0,-58.94085464,-3.929390309,Ba8Bi4H2O
mp-4789,0.6013,-2.494622143,7.623296092,0,-149.1319027,-7.456595133,PrRhO3
mp-5039,5.0422,-2.709892727,2.300137331,0,-261.990703,-6.549767576,KPO3
mp-774371,3.4539,-2.997358691,3.173484424,0.081054467,-95.22768701,-5.601628648,Li4Mn3F10
mp-1020109,5.3095,-2.997807953,2.805765448,0,-493.6058833,-6.855637269,LiMg3P3O11
mp-556689,5.5637,-3.827456751,3.698059529,0,-261.3168253,-6.221829173,KZrF5
mp-4759,3.6731,-2.106224428,5.130457781,0,-308.2431281,-6.421731834,ZrTe3O8
mp-9958,0,-0.810296464,5.564791632,0,-65.7673207,-8.220915088,Ti2GeC
mp-569871,0,-0.449216989,10.30594952,0,-45.81850673,-5.090945192,Tm6CoBi2
mp-623134,0,-0.216940866,8.366628811,0,-20.3657283,-5.091432075,ZrInCu2
mp-18743,4.2174,-2.924550701,3.263684102,0,-164.1104933,-7.459567878,CaMnP2O7
mp-1009827,0,0.123664257,3.041744057,0.482355041,-12.40423522,-4.134745073,BaSi2
mp-17334,0,-0.55058222,4.874362636,0,-168.7897596,-7.6722618,Sc2Cr4Si5
mp-18954,0,-3.001540056,4.269189486,0.009129131,-248.9872921,-8.299576404,ScMnO3
mp-752404,0.9855,-2.482999237,6.177642472,0.037780667,-138.0035554,-6.272888882,Ba2Sb2O7
mp-768402,3.5141,-2.027150916,4.215826557,0.056242426,-290.8731689,-4.277546601,Ba3Y2Br12
mp-1008999,0,-1.758521423,7.032703609,0.24219267,-11.93313379,-5.966566895,LaSe
mp-27256,4.1981,-1.870602491,3.022009757,0,-344.0867898,-5.932530859,Sb2(S2O7)3
mp-28319,1.228,-0.165994606,6.667264483,0,-38.37172479,-3.197643733,PtI2
mp-561474,3.6727,-2.452772737,2.490231669,0,-397.1592655,-5.516100909,K3LiSiO4
mp-11473,0,-0.026211825,11.38187773,0,-2.72306327,-1.361531635,TlHg
mp-985,0,-0.28417235,9.692168399,0,-9.14581524,-4.57290762,TmCu
mp-7444,0.5411,-0.402245406,3.818727824,0,-47.58695602,-2.974184751,RbSb
mp-703550,4.1993,-2.190626259,2.855980731,0.022445596,-464.8672456,-5.81084057,LiZnPH2O5
mp-28017,3.507,-2.877578632,3.284705967,0,-374.1145694,-6.928047582,Na8Ti5O14
mp-961713,0.9726,-1.022406375,10.15542966,0,-21.68096743,-7.226989143,ZrSnPt
mp-510294,0,-2.481930518,6.630939826,0.043141784,-66.25382144,-6.625382144,Sr2CuWO6
mp-775991,0.5668,-2.215112666,3.665342922,0.046249351,-165.7562113,-6.906508805,CrCo3(PO4)4
mp-16481,0,-0.495378634,9.08276998,0,-32.80997613,-5.468329355,TiAlAu
mp-863708,0,-3.020499002,7.002352398,0,-43.22384606,-8.644769212,KPuO3
mp-531530,4.1834,-3.376135051,3.469281917,0.016589085,-496.3914744,-7.091306777,MgAl2O4
mp-29288,1.9336,-0.464725405,5.686390476,0.013581427,-55.48200047,-2.774100024,TlGeI3
mp-35841,0,-0.316942176,4.713980985,0,-13.80575248,-3.45143812,Li2CuGe
mp-30176,0,-0.323618759,12.87413416,0.05246279,-99.21318241,-8.267765201,U2AlCo3
mp-4196,0,-0.654011613,6.10675877,0,-53.38321445,-6.672901806,NdFeSi2
mp-780121,0,-2.021446989,4.395990262,0.083268169,-145.1168274,-6.046534475,Fe4O5F3
mp-766207,2.769,-3.57766252,5.954744183,0.05188048,-465.6040627,-9.312081254,Zr6Nb2O17
mp-975341,0,-0.009957239,5.470926005,0.050217415,-32.84787703,-4.105984629,La3Mg
mp-541986,3.2723,-1.537384637,2.400525,0.009159364,-352.6035609,-6.07937174,K2LaH4N5O17
mp-772869,2.0335,-3.206434822,8.186216486,0.036773198,-505.2313743,-9.356136561,Ta7InO19
mp-367,0,-1.049204098,7.721654757,0.006457689,-77.18372755,-5.513123396,Sm4Sb3
mp-769997,3.781,-3.659903741,4.124683702,0.086235251,-245.6419084,-8.772925301,La2Ti3O9
mp-568855,1.3911,-0.527525969,3.990944401,0,-160.3349197,-3.643975447,K2Hg(PSe3)2
mp-8799,2.2948,-1.257897965,2.717556085,0,-19.18609285,-3.197682142,RbNaS
mp-997554,0.5226,-1.698538407,4.466913647,0.101424123,-128.6051935,-5.845690613,Li4Fe3(CoO4)3
mp-774859,0,-2.780622684,3.662774111,0.082322426,-243.2318544,-7.60099545,LiNbPO5
mp-21466,0,-2.538460521,4.485891681,0.014815508,-191.7819725,-6.84935616,Ca2RuO4
mp-12433,0.918,-0.204175632,4.778073556,0.059205624,-27.82559611,-4.637599352,NaSnN
mp-775731,0.1262,-1.681386352,2.602103033,0.07161781,-360.6317161,-4.74515416,Li9(NiO4)2
mp-1009219,0,-0.967701915,9.810802633,0.497908417,-28.76227793,-9.587425977,HfN2
mp-29717,0,-0.472625234,5.93790883,0.01397945,-453.2710685,-5.396084149,Ag(W3Br7)2
mp-14563,0,-2.512017951,5.061049954,0,-138.3996028,-6.290891037,NaCa3IrO6
mp-30303,0.89,-1.586981592,8.908191312,0,-125.2693672,-5.694062145,Bi4O7
mp-18860,2.3671,-2.780332008,3.061857935,0,-125.5870637,-6.977059092,Li2VSiO5
mp-771,0,-0.263618135,5.127963342,0,-26.86917742,-6.717294355,MnAl
mp-21651,0,-0.55801073,7.772149339,0,-210.5888541,-6.58090169,Ce5Ge2Ru
mp-675942,0,-0.324287621,3.787092849,0.257133035,-27.66501083,-3.458126354,AgClO2
mp-555387,5.5237,-3.217972311,3.61238321,0,-407.108971,-7.829018673,BaSi2(BO4)2
mp-562394,4.4081,-2.967347477,3.418504757,0,-733.856073,-6.794963639,Cs4Li2(Si2O5)3
mp-541177,0,-3.262820222,7.14168028,0,-201.8958423,-10.09479212,GdVO3
mp-17177,3.3557,-2.780281705,5.338199418,,-272.4416776,-7.567824379,Nb2ZnO6
mp-6562,0,-1.968294277,6.582037102,0.021274947,-40.90418502,-5.113023128,Ba2CuHgO4
mp-770848,1.2707,-2.276732995,4.668765663,0.056051073,-132.1689345,-6.608446724,Li2TiCo2O5
mp-18866,2.4895,-2.652022041,3.491107595,0.02164405,-213.5143229,-7.625511533,CaV4O9
mp-714,0,-0.315583365,6.297328444,0.008147338,-38.59911993,-3.859911993,SrSn4
mp-28899,0.8135,-0.147236532,7.153428079,0,-34.12668021,-2.843890018,Hg2As3Br
mp-704189,1.2388,-2.139038863,2.679582644,0.007587912,-484.6281916,-6.730947105,CoPO4
mp-28805,0.9997,-0.741068732,9.337152212,0,-130.8768951,-5.033726736,Tl2Pt5S6
mp-697111,5.5175,-1.393107736,0.958091287,0,-59.54084689,-4.961737241,H2O
mp-571053,0,-0.239397378,4.120405007,0,-62.07848646,-5.173207205,Al5Mo
mp-773918,0.9178,-1.615369239,8.837311742,0.029424053,-562.9126005,-5.685985864,Zn(Bi19O30)2
mp-706273,3.464,-1.187987224,3.976218564,0.000384212,-357.0124228,-4.462655285,KH(IO3)2
mp-4649,0.9988,-1.100482937,4.265617975,0,-84.18616045,-5.261635028,PdSe2O5
mp-2284,0,-1.447559501,5.315183748,0.008359568,-40.04980938,-3.337484115,AgF2
mp-758063,0.2833,-2.837700675,2.790129222,0.100339165,-325.6972098,-7.402209315,LiTiP2O7
mp-779973,2.0603,-2.548993003,10.4106056,0.002384397,-422.2782416,-10.55695604,Hf2N2O
mp-12071,0,-0.498386199,5.730681211,0.164711335,-60.6655372,-7.58319215,Ti3As
mp-697253,5.1988,-1.35494478,1.625952085,0,-155.5747472,-5.762027676,SiH12C2(NF)6
mp-558616,4.4518,-2.866690992,3.745513803,0,-299.5799045,-6.808634194,SrZnP2O7
mp-349,0,-0.417085731,6.249882934,0.031891768,-35.04978525,-4.381223156,Yb3Si5
mp-721086,0.4155,-1.63553937,2.017923035,0.047521129,-360.8124742,-6.115465665,Li2CuP6H20C2(N3O11)2
mp-756804,2.1732,-1.936753568,3.844477616,0.067378576,-96.83610128,-6.05225633,TePHO5
mp-31473,0,-0.219924158,8.494735952,0,-6.32581922,-0.702868802,K2Hg7
mp-770887,2.4289,-2.0887725,2.651061855,0.002480965,-163.1660006,-6.798583356,BeCrO4
mp-30187,3.5021,-1.732660423,5.16348155,0.008775441,-94.57679211,-5.563340712,Ga2Te4O11
mp-39288,2.7822,-3.33540647,6.029909301,0.072445825,-77.28121517,-7.728121517,BaLaMgNbO6
mp-4908,0,-0.61268689,7.332321163,0,-32.99629969,-6.599259938,Y(CoGe)2
mp-647813,3.2422,-2.08721179,4.035733179,0,-163.7225091,-5.847232466,Cs2CrO4
mp-36582,3.1472,-0.942065966,1.770069251,0.00190435,-10.86875462,-3.622918207,NaHS
mp-557019,4.3089,-2.436548218,3.806953952,0,-175.0111054,-5.469097044,RbErSeCl2O3
mp-975138,0,-2.013332607,7.985244344,0.180146855,-32.3710672,-6.47421344,RbWO3
mp-559933,1.4312,-2.589454579,5.578265091,0.005266484,-65.99073051,-5.499227543,Ba3In2Cl2O5
mp-585305,4.1808,-2.58980455,3.55715535,0.04691041,-643.2226139,-6.56349606,Li9Bi3P8O29
mp-27887,0.406,-0.658964649,3.669016061,0,-137.0007123,-5.269258167,Ba3(Si2P3)2
mp-568062,1.2703,-1.384400934,7.382448251,0,-19.48899563,-4.872248908,DyTlSe2
mp-13271,0.0165,-1.192234765,10.09474712,0,-71.88039674,-5.990033062,ErAsPd
mp-31756,0,-2.554563034,7.513158581,0,-72.92399688,-7.292399688,Ba2FeReO6
mp-29232,4.6766,-3.188675426,7.077571578,0.008433614,-156.9977901,-5.607063932,ZrPb3F10
mp-22027,0.0115,-0.045351318,9.46577728,0.076583335,-16.57832229,-5.52610743,MnSnAu
mp-23752,3.003,-0.291857664,3.490042665,0.006869112,-18.39706536,-2.628152194,Cs2MgH4
mp-1008555,0,-0.180352702,7.301687248,0.008689847,-16.7673908,-4.1918477,AlCu3
mp-21307,0,-3.098189997,5.161651929,0.021646802,-232.4766035,-8.30273584,NaEuTiO4
mp-652479,4.1917,-2.564054359,3.178890683,0.000430691,-695.1141616,-6.206376443,LiZnPO4
mp-12226,5.5978,-2.924752707,3.261902372,0,-524.420822,-7.283622528,NaNd(PO3)4
mp-18832,2.9836,-2.820532349,2.883858572,0,-179.5864542,-5.612076695,K2VO2F3
mp-699403,1.8927,-3.249805874,6.357461896,0.026253732,-326.3714139,-8.159285349,BaLa3TiCr3O12
mp-676527,3.2558,-1.684650031,2.84315753,0.006958409,-153.908076,-5.307175033,Na4PH5Se3O16
mp-23038,0.659,-1.265320929,4.132924161,0,-42.37648876,-4.237648876,CsVBr3
mp-6168,1.2553,-0.707412801,4.153068702,0,-329.0559877,-4.570222051,K3Nb2CuSe12
mp-21878,0,-0.310954854,8.608150339,0.017950465,-85.83711261,-7.153092718,CeCo4B
mp-997182,1.00E-04,0.003585491,1.008380738,0.003585491,-36.88755236,-9.22188809,C
mp-697816,0,-2.432083357,2.986689098,0.080801918,-343.1630801,-6.599290003,Li2Fe(PO4)2
mp-632815,4.4936,-2.535351215,2.557096618,0.070441164,-297.2456481,-5.944912962,Li10Ge(PO6)2
mp-973818,0,-2.269149948,7.428170528,0.427519042,-30.51102975,-6.10220595,LiHoO3
mp-20343,1.0667,-1.093618706,6.533400554,0.026474663,-34.87865672,-4.35983209,NaAuO2
mp-867887,0,-0.478353881,10.60445814,0.043688764,-24.3092329,-6.077308225,Sm2CuIr
mp-773699,1.3687,-1.789294713,4.739286951,0.204978837,-178.5035113,-6.375125405,LiMg(Fe5O8)2
mp-777472,3.9064,-2.833241597,2.774071684,0.092762018,-121.2658145,-5.052742273,LiFeF4
mp-996980,0.0047,-0.4798141,8.966592055,0.005244981,-32.94876397,-4.118595496,AgAuO2
mp-22859,1.6637,-0.258079615,6.837555007,0,-4.67781784,-1.16945446,HgI
mp-28276,4.0078,-1.877100038,3.73313958,0,-120.6648972,-3.770778038,K2PrBr5
mp-14836,2.392,-3.100821505,5.837912861,0,-478.6076352,-7.4782443,Pr4Si2Se3O7
mp-1323,7.3085,-3.876782983,2.87564175,0.013044096,-376.2701682,-5.879221379,AlF3
mp-759030,3.3023,-1.5259288,2.557450964,0,-585.5504908,-6.09948428,KSmH4(N2O7)2
mp-626256,3.7465,-1.173087689,1.627068726,0,-175.8481778,-5.495255556,H3NO4
mp-504806,1.923,-1.923746522,4.377969027,0,-162.6901494,-4.930004528,K2Li14Pb3O14
mp-935267,2.2975,-2.441516922,3.676395615,0.035843841,-557.9243848,-7.341110326,Li4UC3O11
mp-754725,1.7896,-2.303814426,7.913660398,0.014748819,-124.8684694,-6.24342347,UCd3O6
mp-1018784,0,-0.778077816,5.936779246,0,-31.52893601,-5.254822668,LiCe(CuP)2
mp-10600,0,-0.187392928,5.359899958,0.033703346,-28.690316,-5.7380632,La3AlC
mp-11568,0,-0.378662896,10.16474486,0.003281788,-7.84062407,-3.920312035,SmTl
mp-1019529,4.4359,-3.266060971,3.718468163,0,-538.193452,-7.580189465,Ba8Al10B12O41
mp-20478,0,-0.670498167,7.091533828,0,-39.71961568,-6.619935947,LuTiSi
mp-775025,0,-2.160976633,3.550864405,0.022375528,-164.2806424,-6.845026766,MnCu(PO4)2
mp-2315,0,-0.049075425,2.425916096,0,-204.6030145,-6.393844202,NaB15
mp-3204,0,-0.8796739,9.799339237,0,-53.42159582,-4.451799652,YbSnPd
mp-989645,1.4073,-1.206440458,6.517844954,0.014543291,-98.63325825,-9.863325825,YWN3
mp-867220,0,-0.63414048,11.0420512,0,-22.264718,-5.5661795,LiTm2Ir
mp-20384,0,-0.789573599,7.683400768,0,-42.43394938,-5.304243673,CeAgAs2
mp-621612,1.9374,-0.774734666,6.276837345,0.020039625,-49.14913732,-3.071821083,AgPb2Br5
mp-1046,0,-0.128948084,7.982741968,0,-74.07511325,-6.172926104,NbSn2
mp-768218,4.8642,-2.811523509,3.787137489,0.091999733,-172.5051599,-7.187714996,Li2TmPCO7
mp-867306,0,-0.256074612,12.90732197,0,-15.41893716,-3.85473429,AlCuAu2
mp-982005,0,-0.04413241,2.627854323,0.04714763,-79.33634128,-2.735735906,Th(Mg4Al3)4
mp-569333,0,-0.353332298,6.811711179,0.002798567,-11.956193,-2.98904825,Li2AgBi
mp-21351,0,-0.347360948,8.591599457,0,-26.00965796,-4.334942993,Dy2In
mp-555909,3.7369,-3.04416772,6.038240561,0,-137.0253815,-6.851269075,Tb5Se2Cl3O10
mp-642493,0,-0.585300805,8.515811976,0,-187.3453395,-8.515697249,Hf3Al3C5
mp-626083,5.2745,-2.61118973,1.866468046,0.04594686,-123.9257824,-6.884765686,Si2H2O5
mp-769610,3.2814,-3.458305448,6.207792184,0.049780028,-407.6577223,-8.492869215,Ca5Ta4O15
mp-542545,1.173,-0.721825261,4.074784524,0,-157.721292,-4.638861531,K3Nb2AsSe11
mp-29743,2.0422,-3.651124527,6.344570374,0,-727.180031,-8.263409443,Sr5U3O14
mp-505418,0,-1.255222665,5.03483335,0.096838284,-65.33649999,-3.266825,CsDyI3
mp-2629,0,-3.932082439,6.534731177,0,-166.9668112,-8.787726907,Ce7O12
mp-755835,3.265,-2.405682712,5.940716912,0.102236501,-123.8929823,-6.882943459,LiBiB2O5
mp-769394,3.6031,-3.299313505,6.47164919,0.080613501,-237.8734564,-7.929115215,Ba4Ta2O9
mp-21124,0,-0.487614993,8.095796718,0,-43.34801113,-3.612334261,SrIn4Pt
mp-559691,4.2849,-3.46301012,2.977142501,0.021269463,-176.1342818,-7.338928408,Ca2Al2SiO7
mp-27821,0.8283,-0.027012647,3.75636207,0,-68.3719356,-4.883709686,Ag3P11
mp-11912,0,-2.653605756,7.468348286,0,-143.2539365,-7.162696827,NaNd2IrO6
mp-763941,0,-2.859401716,3.808085864,0.030148473,-116.1920922,-6.455116233,Mn6OF11
mp-23202,1.3568,-0.468485084,5.150898547,0,-10.41577549,-2.603943873,InI
mp-849468,0,-1.809447598,4.849176284,0.012357403,-165.0923723,-5.896156154,Li4Fe3Co3(TeO8)2
mp-8180,2.9396,-1.478346608,2.267302422,0,-59.8628469,-5.98628469,LiNO3
mp-764497,0,-2.194456518,3.459092686,0.08549491,-242.5868019,-6.738522274,VFe2Ni3(PO4)6
mp-6591,7.31,-3.897511534,3.269825686,0,-101.8820676,-5.660114866,SrLiAlF6
mp-704220,2.3196,-2.405618552,2.802534184,0.025836249,-254.8559838,-7.079332883,FePO4
mp-6105,0.9477,-3.11417797,7.987919508,0,-530.546897,-8.842448283,Pr2Ta3(SeO4)2
mp-984762,0,0.718008182,3.833504833,0.718008182,-5.92675784,-2.96337892,CsY
mp-561550,0.8684,-1.220222506,6.305466423,0.015488844,-145.5414017,-5.197907204,Ag3BO3
mp-758100,0.3804,-2.173665147,3.327607244,0.076482279,-174.1535043,-6.219768009,LiCuPO4
mp-971702,0,-0.379968664,8.004153238,0,-9.6432768,-2.4108192,YbNdCd2
mp-757800,1.5934,-1.656317976,3.57154621,0.085227096,-340.6490274,-6.308315321,LiCuCO3
mp-12826,0,-0.054269091,6.290466357,0.014837999,-43.04297515,-3.912997741,Sb8Te3
mp-19166,2.5035,-2.239922657,6.634037724,0,-129.4417717,-5.883716894,Sr3NiPtO6
mp-676473,2.7205,-1.145113543,2.179530197,0.021292492,-140.5029978,-3.267511576,Te6H6S(Cl13O2)2
mp-781618,0.2056,-2.587982778,4.129846699,0.057114522,-236.6424279,-6.573400776,Mn12O7F17
mp-22044,0,-0.764487048,8.261043183,0,-63.53328997,-6.353328997,Sm2Ge2Ru
mp-779742,3.7673,-1.499137158,3.008006367,0,-309.1250205,-4.985887428,Cs2ZnH12(SeO7)2
mp-569806,0.8224,-0.870017057,3.875246428,0,-364.8399732,-4.677435554,K5Na(Ti2Se9)3
mp-768663,3.2654,-2.300451909,4.018990663,0.000198175,-164.1100428,-6.311924724,Na3SiBiCO7
mp-35236,1.5034,-1.942422721,5.977768638,0,-80.35642718,-5.739744799,Ga2NiO4
mp-5451,0,-0.447783521,8.830489942,0,-32.97148295,-6.59429659,Er(FeGe)2
mp-17988,0,-0.655047556,8.455629872,0,-184.1223427,-8.767730604,U2Mn12P7
mp-974779,0,0.070665136,10.63406069,0.070665136,-26.71214664,-6.67803666,NdTh3
mp-9581,0.1303,-0.774180761,7.711503303,0,-30.29898091,-6.059796182,Th(CuP)2
mp-556771,5.0399,-3.627751664,4.907063924,0.003254807,-359.4840005,-8.17009092,Nd2Si2O7
mp-753942,3.0458,-1.882971114,3.381777611,0.099314965,-134.9809508,-4.499365026,BaY3Br11
mp-4079,0,-0.593969007,3.142635047,0,-34.94103296,-6.988206592,Sc3AlC
mp-759821,3.4681,-2.36705462,4.691639152,0.056676009,-206.4326636,-5.160816591,Sb3O2F5
mp-2930,0,-0.029270379,6.910163936,0.040490986,-38.12240008,-7.624480016,Mn3ZnC
mp-19767,0,-0.722645409,8.314009838,0,-77.23476653,-6.436230544,DyCoSi
mp-16480,0,-0.279793028,14.44467893,0,-162.0440235,-3.682818717,Al3Au8
mp-1525,0,-1.35817972,6.961521842,0,-11.7930978,-5.8965489,CeTe
mp-13434,0,-0.199223798,5.803054031,0.003329577,-27.91499846,-4.652499743,CaMgNi4
mp-20131,0,-0.405612565,7.135478313,0,-16.34540942,-4.086352355,YIn3
mp-7543,0,-1.419927625,3.191616589,0.02663605,-23.59572556,-5.89893139,LiVS2
mp-976122,0,0.343907456,6.490122973,0.343907456,-16.61995501,-4.154988753,Ge3Sb
mp-780421,4.2705,-3.663524837,5.051187992,0.08062452,-238.0293868,-7.934312895,LaAlO3
mp-865358,0,-0.360376329,11.10710881,0,-28.5883849,-7.147096225,DySnRu2
mp-690508,2.6399,-2.681254371,6.625848595,0.015710044,-263.762126,-8.792070866,Ta2Mn4O9
mp-644483,0,-0.422249245,5.997228901,0,-33.05176239,-6.610352478,Ti3SnH
mp-8411,0.7694,-0.378370295,4.032090319,0,-23.3335991,-2.916699888,Na2AgAs
mp-510728,0.1312,-0.305755967,1.56719177,0.109172206,-236.985738,-6.236466789,MnCoH18(CN2)6
mp-628782,2.7968,-2.079947213,6.573869959,0,-272.6974008,-6.492795258,V3Pb5ClO12
mp-27700,2.3963,-1.535864073,4.983010114,0,-115.5879904,-5.253999564,Sb4Br2O5
mp-13675,0,-0.943430078,8.247386496,0.005054488,-81.80452318,-5.112782699,CdPd3O4
mp-559608,4.7165,-3.205480477,2.871305293,0,-830.7033212,-7.416993939,K3NdSi7O17
mp-11892,0,-2.747200474,6.341694647,0,-145.9302154,-7.296510768,NaNd2RuO6
mp-867296,0,-2.348193432,4.831572315,0,-221.6923261,-7.917583076,RePO5
mp-631409,0,0.649893875,16.80414374,0.777620778,-27.85350431,-6.963376078,TlTcIr2
mp-24798,4.9539,-0.568298507,2.056007026,0.005666318,-139.2349656,-4.972677344,Rb3B12H12Cl
mp-6782,2.8017,-2.516305218,4.888718236,0.012371227,-66.02742572,-6.602742572,Li2ZrTeO6
mp-5962,0.9553,-0.632609463,2.882363402,0,-18.97681324,-3.162802207,NaMgAs
mp-9607,2.0701,-3.160339563,6.213826398,0,-216.5495169,-7.733911319,Li2UO4
mp-25571,0.8291,-1.882697652,5.763243196,0.259749632,-21.4322664,-7.1440888,MoO2
mp-763303,0,-1.955078709,4.674925402,0.054441082,-125.1670636,-6.953725755,Mn3O5F
mp-846,0,-0.42442086,7.97209503,0.003989506,-66.54973892,-6.654973892,Hf2Al3
mp-690435,0.8212,-2.036857317,3.973624708,0.039846794,-282.6001707,-6.728575492,Li7Mn11O24
mp-2714,0,-0.53495963,8.842597811,0,-57.78345372,-4.81528781,Pr2Au
mp-203,0,-0.188062777,8.38932871,0.00371491,-18.59359433,-4.648398583,NiTe
mp-19363,2.2196,-1.614364375,6.756781646,0,-68.45376105,-5.704480087,HgMoO4
mp-13202,0,-0.614390485,6.897993506,0,-32.83849064,-5.473081773,YCuSn
mp-980945,0,0.091155507,5.561106344,0.091155507,-33.4398992,-8.3599748,Ti3Nb
mp-99,0,0,8.987652505,0,-9.13482239,-4.567411195,Er
mp-32857,0,-0.052675394,6.450195641,0.075965705,-82.31297807,-3.919665622,Cu13Se8
mp-760121,0,-1.471435542,8.765500436,0.001154219,-403.8685273,-6.213361958,Bi12Rh12O41
mp-780892,0,-1.84920708,2.76536947,0.074298589,-351.8164763,-6.515119931,Na4Fe2As(CO4)4
mp-3813,0.6162,-2.269795607,4.113163521,0.000986497,-42.14295267,-6.02042181,Ba2ZrS4
mp-541810,0,-0.261143232,7.184842401,0.034863027,-109.5786465,-5.218030785,K2Ni12As7
mp-862375,0,-0.264206327,8.443183602,0,-24.38406673,-6.096016683,Sc2TcHg
mp-570203,0,-0.112073831,8.084536873,0,-165.8624905,-6.910937104,MnCoSb
mp-867266,0,-0.274315219,7.309192162,0,-9.43778897,-2.359447243,CaMgTl2
mp-560639,2.6483,-1.793088929,3.243861589,0.000948272,-162.9043525,-3.702371647,SbS(BrF2)3
mp-752711,3.2517,-1.685539973,4.403061453,0.057250472,-118.3076623,-3.286323953,BaSr2I6
mp-543019,0,-0.410135915,9.775803346,0,-53.74065851,-8.956776418,GdNi2
mp-561189,4.0163,-3.019588833,2.872287917,0.013015988,-275.3238804,-7.059586676,Rb6Si10O23
mp-773453,2.1294,-2.313343058,2.601906948,0,-159.855581,-6.660649206,K2FePCO7
mp-690004,0.823,-2.381510978,2.688991968,0.107096769,-122.3673243,-6.798184682,LiCo(PO3)4
mp-614964,0,-2.038578501,6.575033282,0.052655012,-83.28216613,-5.948726152,Ba2PrCu3O8
mp-978535,0,0.020862812,8.244090206,0.020862812,-18.44922956,-4.61230739,SmDy3
mp-27891,0.8271,-1.382482383,8.737740763,0,-53.25230141,-5.325230141,Bi2SO2
mp-2128,0,-0.234404453,7.765254451,0,-44.77550799,-4.477550799,Sn4Pd
mp-977570,0,-0.046521251,8.526547813,0.010878641,-22.87811149,-5.719527873,LiPr2Os
mp-975256,0,-0.153307831,10.52678433,0.08689826,-14.65110713,-3.662776783,Ho3Hg
mp-12699,0,-0.785219819,8.999981387,0,-49.19581928,-3.513987091,Ca3Au4
mp-19178,1.4273,-1.049624885,7.308029543,0,-41.43199567,-5.178999459,CoAgO2
mp-541367,4.4019,-2.737200313,3.439199672,0.002596717,-496.8982121,-6.901364057,SrCd(PO3)4