id,band_gap,formation_energy_per_atom,density,e_above_hull,energy,energy_per_atom,pretty_formula
mp-505545,0,-0.689707207,8.864966792,0,-255.1603717,-7.087788104,Lu2FeB6
mp-776051,0.8073,-2.497782224,3.262447127,0.088911336,-282.8031684,-7.070079211,Li2Mn2Fe(PO4)3
mp-762358,4.4551,-1.938378569,2.67784798,0,-553.0045061,-5.760463605,LaH9(SO6)2
mp-723082,2.4632,-1.450629625,2.584886191,0.011835632,-355.6659377,-4.93980469,Na5Te2H36AuO28
mp-568326,0,-0.163428781,9.009556557,0,-167.1803204,-8.35901602,Pr2WC2
mp-712,0,-0.23551518,6.011622386,0.020762994,-11.03770678,-5.51885339,YCu
mp-540883,2.6133,-0.614046553,2.260666782,0,-204.4828561,-4.647337638,As2P2S7
mp-11501,0,-0.112687918,8.498196177,0,-26.94477037,-6.736192593,MnNi3
mp-571598,0,-0.09946631,15.74672043,0.003886502,-89.61565651,-3.319098389,Ga2Au7
mp-26533,1.149,-2.771262054,3.144363715,,-272.8952874,-7.580424649,LiNb2(PO4)3
mp-568266,0,-1.218370703,9.087333395,0.004686643,-60.24430005,-6.024430005,Tm2NiAs2
mp-559332,2.3396,-1.358716382,6.311034028,0.005681291,-117.5650527,-4.898543862,BiTeIO3
mp-17307,1.0497,-0.506714226,5.08634102,0,-95.78788217,-3.192929406,K2Hg3(GeSe4)2
mp-769593,2.014,-2.422018573,4.037698977,0.005376516,-220.9276524,-6.903989139,Li4VCr3O8
mp-7068,0,-0.407911286,3.159108574,0,-26.25437977,-3.750625681,Sr3(AlSi)2
mp-19733,0,-0.216086601,7.528596974,0.009295388,-30.5375292,-5.0895882,Ce2In
mp-1016109,0,-0.079480428,7.08336906,0,-60.52783686,-1.780230496,ZrZn16
mp-26794,0,-2.361735844,2.67359262,0.052972606,-175.0368445,-6.251315876,Li3Cu(PO4)2
mp-553991,2.3472,-2.570125824,5.011362391,0.002640519,-87.2427592,-6.710981477,Ti(GaO2)4
mp-1638,0,-0.253988797,3.302373367,0.006483002,-19.88445222,-3.31407537,SrAl2
mp-19341,3.3293,-1.706732505,7.213388662,0,-84.39062552,-6.027901823,Tl2WO4
mp-770472,4.5874,-4.016959485,9.564684875,0.082399802,-167.4718944,-8.373594721,HoLuO3
mp-11291,0,-0.115695567,7.346944827,0.074376665,-7.08044872,-3.54022436,CeCd
mp-29526,2.1636,-0.622014328,2.587915474,0,-101.4832167,-5.074160837,BrNO3
mp-674341,2.6912,-3.635083602,5.658502298,0.183562839,-200.8477885,-9.129444933,Sc3TaO7
mp-510633,2.7849,-1.493782768,6.34576383,0.000860678,-178.0638189,-5.56449434,Pb2CBr2O3
mp-14901,2.7708,-1.950059376,3.700122615,0,-453.7817579,-5.402163785,NaZnAsO4
mp-22179,0,-0.671188496,4.422838957,0,-43.60678831,-7.267798052,YTiSi
mp-1340,1.0376,-0.585457847,4.767617686,0,-38.91424954,-3.891424954,Ga2Se3
mp-865527,0,-0.436769131,3.572402903,0,-38.91754043,-4.864692554,YAl3
mp-18979,2.3323,-2.672504697,4.558720767,0.001116509,-458.0674197,-7.634456995,TbFe3(BO3)4
mp-20789,0,-0.727608464,9.128997781,0,-50.99391227,-5.665990252,SmInRh
mp-3219,0,-3.129445164,5.430109516,0,-205.5310294,-8.563792893,EuPO4
mp-761481,2.3744,-2.467668993,3.229734155,0.067596733,-116.5873348,-6.477074157,Li2FePO5
mp-9323,0.5791,-2.480098426,6.276520045,0,-128.1947085,-6.409735424,Tb2S3
mp-686836,2.379,-2.53953275,7.729336753,0.022646311,-292.0825313,-7.302063284,MgTiNb2(PbO3)4
mp-2583,0,-0.748681513,8.321026007,0,-33.4828566,-8.37071415,TiRh
mp-560356,2.512,-1.80982843,4.469186971,0,-159.1433744,-5.683691942,Sm3Si2S8I
mp-2309,1.1833,-2.452468065,6.447615004,0.025713774,-126.4478099,-6.322390495,Tm2S3
mp-781505,3.716,-3.093552029,4.603333814,0,-141.8190439,-7.090952195,Ca3WO6
mp-7239,0,-0.480146719,5.222882513,0,-32.57737567,-3.619708408,PrMgGa
mp-976923,0,-2.097380296,7.268789366,0.038669782,-36.94840578,-7.389681156,NaReO3
mp-755,0,-0.172625313,8.190607274,0.003135988,-63.53025088,-5.294187573,CoSb2
mp-555805,2.4648,-1.344176767,1.818611318,0,-56.17413892,-3.120785496,AlSCl7
mp-15707,0,-0.52014813,7.315231556,0,-234.3246718,-7.322645995,TbB2C
mp-560506,0.0975,-2.857256871,2.883956929,0.063438074,-324.279398,-7.369986317,NaTiP2O7
mp-555785,2.7435,-3.712920396,5.876547165,0.039851561,-191.5029531,-8.704679686,Nd2Ti2O7
mp-755950,2.7291,-3.525083163,5.10584894,0,-138.7441717,-7.708009539,Ba2Sc2O5
mp-12896,0,-0.513921406,4.836158768,0,-59.90206214,-4.991838512,NdAl4Co
mp-774356,0,-2.608117958,2.910010001,0.09044451,-208.9288828,-6.964296093,Li3Mn2(SiO4)2
mp-542503,0,-2.428867033,6.246916334,0,-264.5132089,-6.960873919,La9(SbO)5
mp-30779,0,-0.102881838,3.692649156,0,-9.94088134,-2.485220335,SmMg3
mp-571404,1.1259,-0.261772527,6.684186558,0.004514098,-51.04238536,-1.822942334,Hg3(SeI)2
mp-12175,0,-1.143789307,9.622744298,0.006229492,-267.4333605,-7.428704457,Y5Pt4
mp-766416,1.7242,-2.046789425,2.931281537,0.032413,-321.9619673,-6.439239346,K2UH6C2SO13
mp-646392,0,-0.159247829,9.00046532,0,-86.25326942,-5.390829339,Dy3Co
mp-777860,0.1698,-2.696689185,3.019520996,0.005883541,-127.0088389,-4.704031071,Li2FeF6
mp-744226,0.9217,-1.438618628,2.009271046,0.06466873,-807.8130873,-5.77009348,CoP3H16N4O11
mp-7137,4.5474,-3.29046085,6.371289491,0,-112.6004445,-7.037527781,LiTbO2
mp-549127,1.3985,-2.483999078,8.27893961,0,-50.40605602,-6.300757003,HoBi2ClO4
mp-12161,0.2471,-1.288888213,2.720544038,0.092831237,-134.7913704,-6.126880472,K2SrCu(NO2)6
mp-781077,0,-1.908815171,4.486936756,0.090000082,-182.2258773,-6.074195911,Fe5O7F3
mp-12951,0,-0.596311082,10.46106786,0,-33.28149097,-5.546915162,ZrGaAu
mp-17008,3.2938,-2.416908257,3.958689515,0.012962545,-179.4509807,-5.981699357,CaTeO3
mp-22326,0,-0.649478059,7.72284074,0,-96.77408276,-5.692593104,Mg4As6Rh7
mp-757094,3.6948,-3.938170774,6.261188978,0.075441829,-144.889706,-9.055606628,La2HfO5
mp-554643,4.5798,-2.538494459,3.068531462,0,-235.6127345,-5.354834874,K2SbSO4F3
mp-12607,0,-1.108740993,11.16531506,0.004053924,-26.11598468,-6.52899617,PrPt
mp-984707,0,0.364190214,14.61630345,0.364190214,-38.67702176,-9.66925544,ErTa3
mp-1163,0,-0.066777642,4.516942045,0,-121.4235797,-4.336556418,UBe13
mp-567391,1.171,-1.897364987,7.469278491,0,-182.0754281,-6.502693861,Dy3Se3N
mp-29243,0,-1.537279703,5.380650249,0,-21.69599213,-4.339198426,Ba3SnO
mp-570607,0.664,-1.222140492,5.669081946,0,-298.8157908,-4.668996731,Dy5C2I9
mp-753515,2.3861,-1.881539984,5.537141231,0.058054501,-91.52113886,-5.720071179,Sb3O4F
mp-17856,0,-0.270196546,4.24343885,0.002548689,-176.9890664,-4.42472666,Al7CoCu2
mp-573763,1.774,-0.991893012,3.989103818,0,-31.63549709,-2.636291424,Cs2Te
mp-8751,2.7465,-1.38989862,2.852130696,0,-21.11723903,-3.519539838,RbLiS
mp-4583,0,-0.109496454,9.276654919,0.12741997,-28.78051111,-7.195127778,NbCo2Sn
mp-631527,0,0.929525493,6.522424358,0.929525493,-13.0868875,-3.271721875,In2GeB
mp-675130,1.7115,-1.68417856,7.564228821,0.040014843,-379.9691588,-5.587781748,Tb6PbSe10
mp-13536,0,-0.452167373,8.695885113,0,-39.10515034,-4.345016704,TbZnNi
mp-2874,2.7008,-2.7064221,4.835007411,0.004717993,-75.70990044,-6.882718222,In2Si2O7
mp-5221,0,-0.574395662,9.779117779,0,-30.21990232,-7.55497558,HfAlCo2
mp-6304,1.2999,-2.650975578,6.056970248,0.026288995,-62.39436852,-6.239436852,Sr2GaSbO6
mp-775821,0.9763,-2.144327534,4.339996088,0.057399069,-373.1780155,-9.329450388,Ti2N2O
mp-972633,0,-0.270280924,10.75511202,0.062823932,-28.89692224,-7.22423056,SmErRu2
mp-555271,4.3543,-3.269098334,4.764807767,0.00298431,-113.6434458,-4.735143575,Ba2Zn2ClF7
mp-559228,2.177,-1.661849851,3.891111759,0,-299.8233268,-5.353987979,Rb2HfS4
mp-27483,1.66,-1.879230431,4.665817217,0,-380.83822,-4.76047775,Li5TlO4
mp-545706,0,-2.133473304,4.346533768,0.00079519,-57.83736559,-5.257942326,Ca3Cu2(BrO2)2
mp-775184,0,-2.853289645,2.386979399,0.080471567,-512.4694537,-7.536315495,Sc2(PO4)3
mp-865303,0,-0.215359824,13.08920751,0,-28.1444811,-7.036120275,Tm2CoOs
mp-764789,1.0545,-2.665407095,3.533410008,0.096232493,-176.0427445,-6.287240875,LiMn2OF3
mp-17918,2.3078,-2.550454423,4.405679782,0,-165.9863041,-5.187072003,Ba2SnS3F2
mp-651301,3.5954,-2.113925039,3.853328135,0.004738623,-311.7254719,-6.494280665,NaIn(MoO4)2
mp-16866,0.1022,-1.707183751,3.291560052,0,-223.4282274,-6.982132106,KNpN3O11
mp-867730,2.386,-1.917809131,5.382434123,0,-59.97255582,-4.997712985,Cs2SnO3
mp-549720,0.8339,-1.437395446,5.133428675,0,-46.25450925,-5.781813656,NbI2O
mp-626411,2.7772,-1.628820374,4.166978947,0,-146.2082261,-5.221722359,In(HO)3
mp-754516,0,-0.600513876,3.960070805,0.04203363,-29.79513021,-4.965855035,LiNiP
mp-773129,2.7049,-2.531490854,3.668725956,0.019680807,-489.759873,-6.802220458,LiSn2(PO4)3
mp-29645,0,-0.474772496,6.155278489,0,-182.2443541,-8.283834278,Nb2Cr4Si5
mp-983565,1.4842,-0.111819666,5.591583499,0.011609568,-36.4081927,-4.551024088,CuBSe2
mp-550111,1.2801,-2.332047991,8.026405354,0,-49.70389845,-6.212987306,SmBi2BrO4
mp-8251,0,-0.345422194,3.661428476,0.023704882,-64.8909874,-6.48909874,VP4
mp-754368,1.4921,-1.868869389,4.563711044,0.000401968,-42.78811137,-5.348513921,NaSbO2
mp-11594,0,-0.602833803,14.54755256,0,-48.34921813,-8.058203022,PrB2Ir3
mp-641651,0,-0.326306564,6.699616229,0.053438399,-164.435992,-5.872713999,U2(Al3Co)3
mp-13221,0,-0.16231695,7.110909429,0,-93.63039865,-3.90126661,NdMg2Cu9
mp-752422,1.0432,-0.592575566,3.591926377,0.061875889,-52.66231263,-2.925684035,IClO
mp-975789,0,-0.083080326,5.295587465,0.007457485,-12.80285095,-3.200712738,PrTmMg2
mp-555214,1.5973,-1.126387684,4.008096803,0.013915671,-181.740539,-3.495010364,ZnS
mp-11166,4.776,-2.726664218,4.701313852,0,-99.5131073,-6.219569206,BaZnCO3F2
mp-866132,0.4167,-0.306877652,5.587380234,0,-10.39860905,-2.599652263,Na2TlSb
mp-2264,0,-0.852920562,8.957711897,0,-21.79199705,-5.447999263,ErGe
mp-17817,0.7612,-0.794230552,3.127273433,0,-176.1585166,-4.893292128,Ca3(GeP2)2
mp-977997,0,0.179583604,9.566966263,0.187780097,-33.14152159,-8.285380398,ZnMo3
mp-676694,2.9835,-2.909976364,4.397739508,0.001267087,-471.0028705,-7.850047842,LiNbO3
mp-29226,2.6397,-2.757015259,4.083632943,0,-300.8386195,-6.26747124,Ca3Ga4O9
mp-556757,0,-2.577011144,3.136251967,0.004884723,-41.46673889,-4.146673889,K2NaNiF6
mp-755991,1.0812,-0.184184575,4.510075754,0.069959672,-89.87382628,-3.744742762,AgBrO4
mp-4305,0,-0.578629493,7.490040669,0,-26.50977753,-5.301955506,Er(CuSi)2
mp-32502,2.219,-2.65799459,2.343075106,0.033162453,-259.0104806,-7.194735572,LiV(PO3)4
mp-720294,4.1749,-1.129751031,1.64520732,0,-596.6728178,-5.143731188,AsH18N3O7
mp-650228,3.645,-2.137998511,3.925515085,0,-311.9687298,-6.499348537,KIn(MoO4)2
mp-974729,0,-0.308508608,4.952312919,0,-55.157702,-4.242900154,Nd(Al2Cu)4
mp-672274,0,-0.424685217,8.703021154,0.005439818,-44.86264086,-3.738553405,YbIn4Rh
mp-540284,0.1497,-1.85530672,3.412160791,0.0405709,-37.5465877,-6.257764617,CuPO4
mp-568318,0.4181,-0.572263577,5.607998399,0,-505.0870948,-5.050870948,KTaTe3
mp-772319,0.6766,-1.242710877,4.831925584,0.032392735,-143.8297036,-5.13677513,Li4Co3Ni5O16
mp-867330,0,-0.495272772,5.904564768,0.024747945,-23.7153848,-5.9288462,Al2FeNi
mp-541000,1.4708,-0.277059664,3.36965456,0,-233.3443898,-4.166864104,K3As11
mp-559895,0.3742,-1.928664831,5.77508125,0.006703703,-252.6174112,-5.7413048,ErCuTe2BrO6
mp-558763,1.8143,-0.933161528,6.40622001,0.01139082,-388.506435,-4.414845852,Ag2Hg(SeO3)2
mp-769855,0.788,-2.587222925,5.03468299,0.069532451,-139.6924697,-6.984623484,SrCrO3
mp-973276,0,-0.310304264,9.210039758,0,-12.17461637,-3.043654093,HoLuCd2
mp-22592,0,-2.716098976,4.922144348,0.054052244,-150.9276428,-7.546382142,CaTi4(CuO4)3
mp-561182,0,-1.868720169,7.176260581,0.015226278,-98.70438309,-5.194967531,Ba4Tl2Cu2HgO10
mp-556017,5.0734,-3.581480939,5.074302066,0,-220.4727707,-8.479721952,Th2P2O9
mp-30543,0.4418,-0.438274386,6.001920225,0.028552023,-159.736857,-3.327851188,RbAg7S4
mp-972692,0,0.043388847,9.033136078,0.043388847,-7.62409168,-3.81204584,SnPb
mp-554602,1.6981,-1.354507974,3.062381535,0.000682289,-114.8582034,-5.220827427,Rb2PdN2(ClO2)2
mp-14536,3.9,-2.513402014,3.262801779,0.0020812,-1018.667404,-6.063496452,KNa2Zn3(PO4)3
mp-867179,0,-0.375921606,9.097522735,0.004960598,-4.70985504,-1.17746376,SrCdHg2
mp-989638,0.4984,-0.600064644,4.244448743,0,-78.43702288,-7.843702288,CaTcN3
mp-7961,0,-1.660498031,4.742722778,0,-21.59046287,-4.318092574,Sr3SnO
mp-1019804,6.2377,-2.272838886,2.498318822,0,-303.2123446,-6.316923845,KB(SO4)2
mp-30747,0,-0.190201123,9.541560763,0,-68.40272692,-2.630874112,Zn11Ir2
mp-4073,0,-0.516685315,7.729410176,0,-34.87681755,-6.97536351,Sm(CoB)2
mp-775289,0,-2.250342669,3.467215546,0.051743082,-253.1625525,-7.032293124,Mn3CrCu2(PO4)6
mp-639526,0,-0.444825284,6.628876852,0,-92.60243778,-4.209201717,La2(ZnGe2)3
mp-19455,1.3558,-2.139686759,4.95259075,0.004646619,-89.10704698,-7.425587248,MnMoO4
mp-570527,0,-0.910306732,11.90544887,0,-115.7257456,-3.214604046,Yb5Au4
mp-24446,5.1906,-1.883378524,2.105363336,0.04458737,-350.5964277,-5.478069183,LiH2SO4
mp-3901,3.6582,-3.539216932,6.016375302,0,-106.0383942,-8.83653285,NdNbO4
mp-2123,0,-0.144051322,12.33230438,0,-37.60691738,-7.521383476,Nb3Au2
mp-556975,1.6179,-1.941347564,4.769914732,0,-142.7339934,-5.947249723,Nd3CuSiS7
mp-13753,5.379,-2.846804098,3.309921503,0,-591.4848619,-7.393560774,SmP5O14
mp-27925,6.9711,-4.249380864,5.444747975,0,-501.4625303,-6.268281629,KEr2F7
mp-12736,0,-0.59960883,8.813420653,0.011055127,-45.50152028,-7.583586713,TbB2Rh2C
mp-28994,0.6873,-0.59239552,2.224353226,0,-23.88740689,-2.985925861,KLi2As
mp-13914,0,-0.218199104,7.425340972,0,-21.62350395,-5.405875988,LiCo2Ge
mp-555257,3.6219,-2.734129177,5.004717489,0.000789103,-130.4329843,-6.521649213,Mg2BiPO6
mp-561067,4.0999,-2.996181421,3.426822782,0,-47.35534514,-4.735534514,KRb2FeF6
mp-2963,4.3446,-3.473724657,2.842846964,0.000627098,-608.6428142,-7.245747789,CaAl2O4
mp-3991,0,-0.296570172,11.81082892,0,-167.1718685,-10.44824178,UMoC2
mp-4478,0,-0.979351688,6.717835903,0,-65.6899837,-5.474165308,CaSiPt
mp-634378,5.4874,-2.036837039,2.307814263,0,-156.8243071,-5.600868109,NaHSO4
mp-14099,1.6133,-2.016820502,5.658776233,0.035611661,-18.44725331,-3.689450662,ZnAgF3
mp-770698,2.9334,-2.494728343,2.961761666,0.095139921,-200.6174674,-6.269295857,Li2AlFeO4
mp-756550,3.5753,-2.802484723,6.866210639,0.080552907,-171.3863565,-7.141098187,TmAsO4
mp-540957,1.3886,-0.823481579,4.366848113,0,-21.45888489,-2.384320543,Cs2TeI6
mp-978525,0,0.250823508,5.259263329,0.618498423,-52.27000105,-6.533750131,Si3Mo
mp-676262,0.9695,-2.707966984,9.246676715,0,-323.5318944,-8.088297361,TaTlO3
mp-559113,4.3509,-1.249529712,1.75156007,0.024641672,-651.69701,-5.924518273,ScH24C3S3(N3O5)3
mp-510273,2.3884,-1.87318245,4.714324436,0,-41.93659291,-5.242074114,CsSbO2
mp-554894,4.5209,-1.742876368,2.972385618,0,-268.1879591,-5.363759181,MgTlP(H6O5)2
mp-775018,1.7896,-2.788956249,3.240839066,0.044356136,-183.4446869,-7.64352862,TiFe(PO4)2
mp-572284,2.1992,-1.575980904,3.459594648,0.093463589,-160.3449373,-3.340519526,SbXeOF9
mp-978513,0,-0.081419674,5.521593895,0.002871875,-12.81810892,-3.20452723,SmErMg2
mp-37605,1.523,-1.647160977,5.027172373,0.007551249,-40.48142191,-5.060177739,LiNdSe2
mp-770968,4.0053,-2.192742396,3.048737013,0,-160.7105729,-6.181175882,Na3NiPCO7
mp-581868,3.3077,-1.466122277,4.750349561,0,-363.9568237,-5.054955884,NaY(IO3)4
mp-755491,2.1566,-3.205192643,4.108621564,0.027446172,-180.4554278,-8.593115611,Sr2Ti6N2O11
mp-765739,0.7788,-2.806756649,4.088640074,0.043999896,-171.7155249,-7.154813538,VOF
mp-998434,0,-2.446212351,5.575300367,0.062881955,-159.0095504,-3.975238759,RbTlF3
mp-771575,0.7292,-2.39636486,4.039910025,0.025501019,-203.0173991,-7.250621397,Li2TiMn3O8
mp-583168,0,-0.141526314,4.743862983,0,-78.25420287,-3.260591786,NaSn2
mp-707395,4.1143,-1.505399233,2.879833845,0.009921289,-161.0249156,-5.032028611,NaH2SeO4
mp-691091,2.8883,-2.118005666,2.182659712,0.609811092,-277.6780404,-6.036479138,Na2Al2Si3(HO3)4
mp-28566,0.9116,-0.860477334,4.192521426,0,-226.8511242,-4.726065088,NaTiSe4
mp-1018681,0,-0.428047214,8.265652352,0,-19.82854141,-3.304756902,DyZnIn
mp-2196,0,-0.715378252,5.790995035,0,-73.95252513,-4.108473618,BaSb2
mp-558603,4.4472,-3.086882003,2.239345664,0,-216.5258081,-7.217526938,K2Si4O9
mp-971705,0,-0.18939549,9.030165766,0.023877548,-13.68522263,-3.421305658,Tm2MgTl
mp-781603,3.0329,-2.498226559,3.208704199,0.003669332,-173.1824449,-7.215935204,Li4Mn3Fe(BO3)4
mp-9870,2.6721,-3.080905193,5.372059328,0,-164.5895137,-8.229475686,K3Ta3(BO6)2
mp-569383,0.3524,-0.815025033,3.149690017,0,-260.0265071,-5.909693343,Ca5(CoN2)2
mp-769662,1.3166,-2.413215547,4.452760715,0.058982409,-136.8619316,-6.843096581,Li2TiFe2O5
mp-706518,1.8706,-1.510771648,5.560342523,0.011320594,-287.6875495,-5.993490614,TlCrO4
mp-769021,0.0673,-1.263157343,3.273199035,0.125354488,-172.3576994,-4.308942484,Na2CuO2
mp-568540,0.9346,-0.390006022,5.809155206,0,-73.48587182,-3.340266901,Ag5Hg4P8Cl5
mp-697096,2.1415,-0.44369108,4.328505937,0,-24.79841616,-3.54263088,Na2H4Pt
mp-683957,1.5028,-2.395989038,5.514993227,0,-346.2344481,-6.182758002,Nd4CuTe5(ClO5)3
mp-571370,0,-0.385976412,7.611226899,0.001359225,-118.6064729,-7.412904554,Fe2NiP
mp-28002,1.1275,-1.278980411,3.778694395,0.023632836,-48.11896432,-4.009913693,Rb3Mn2Br7
mp-29160,1.2679,-1.892595301,6.202128096,0.035995727,-150.3571675,-6.26488198,TiAg2O3
mp-10883,0,-0.232697967,7.024892728,0.07013045,-28.53558759,-7.133896898,AlCrCo2
mp-744025,0.0353,-2.84686592,5.184144554,0,-268.6462363,-6.716155906,Sr8Mg3Fe(MoO6)4
mp-672257,0,-0.435572078,7.973428483,0,-46.45282947,-4.222984497,Tm2Ga8Fe
mp-684509,4.2158,-2.518599204,3.159000973,0.039698535,-381.7795148,-6.817491336,LiSn(PO3)3
mp-28503,3.3843,-3.358757666,3.035288395,0.061205021,-465.5100848,-7.508227174,Al10Si2O19
mp-982016,0,-0.233634275,9.495550979,0.104676825,-34.79948112,-4.34993514,Tm3Ga
mp-910,0,-0.453168714,7.62106684,0.042382338,-20.24495018,-10.12247509,NbC
mp-11203,0,-0.551382829,9.895950497,0,-48.83218169,-5.425797966,Lu6FeSb2
mp-643791,5.0891,-2.225616411,2.772835542,0.012529204,-95.23278438,-5.952049024,RbP(HO2)2
mp-690518,0,-1.25142533,4.913347617,0.137462814,-54.91912899,-5.491912899,Na(CoO2)3
mp-555506,0,-3.52910774,2.966406861,0.049316137,-52.92738854,-6.615923568,ZrCrF6
mp-655613,0.7322,-1.537506472,6.21083557,0,-93.59502855,-5.505589915,Cs2Tb6Te7N2
mp-27776,1.0213,-0.937862932,4.477475985,0.001540623,-54.69730827,-2.734865414,Cd2AsCl2
mp-3179,0,-0.636154588,7.486025056,0.002429777,-58.97853228,-5.361684753,Tb3(CuSi)4
mp-972202,0,0.391036486,8.074261593,0.570390331,-22.73785615,-5.684464038,TcAs3
mp-669304,4.0904,-1.915296346,4.195473008,0,-106.8327628,-3.815455814,Cs3Tb2Br9
mp-995282,0,-0.047130536,2.307795259,0.137168503,-130.6118617,-5.442160903,LiAlB4
mp-649608,3.4494,-1.576346342,2.481929915,0,-1052.856103,-6.419854287,K3Pr2(NO3)9
mp-759211,4.3906,-1.586164888,2.496341146,0.083690886,-680.8400235,-5.769830708,La2H22S6N6O23
mp-585,0,-0.283604401,5.593633398,0.098751546,-23.36711565,-7.78903855,MnB2
mp-2662,0,-0.614974711,5.958479029,0,-63.19597212,-7.899496515,MnP
mp-23567,0.5701,-0.67092289,5.912089199,0.013171915,-94.43955033,-2.951235948,CuHgSCl
mp-27450,0.0063,-1.442263817,2.6498525,0,-64.72999443,-3.236499722,KCuCl3
mp-6478,3.7398,-2.778501016,5.442086855,0.002938034,-123.4925202,-7.71828251,LiTaGeO5
mp-11276,0,-0.626960715,8.590554463,0,-12.33035986,-6.16517993,BeRh
mp-850974,0.2132,-1.676675609,2.655591592,0.102134497,-150.2496874,-5.008322912,Na7Cr2O6
mp-706339,5.1454,-1.848124858,1.759710741,0.01454113,-737.2774304,-5.759979925,MgB3H15O13
mp-2998,1.6663,-3.496496802,5.88790572,0.014401893,-79.96690119,-7.996690119,BaTiO3
mp-541668,2.2393,-2.410222386,3.518099577,0,-549.0725209,-6.863406511,SbP2O7
mp-770630,2.0153,-2.52580649,3.249685455,0.098977396,-242.1838247,-7.123053666,RbLi2Cr2(BO3)3
mp-999027,0,-0.15684091,4.195926712,0.119400416,-28.06684888,-7.01671222,Ti3Al
mp-567022,3.4166,-1.874517319,5.586005843,0.005210566,-446.7498016,-5.878286863,K3Bi5(AsO4)6
mp-974045,0,-0.504567842,7.031478256,0,-114.181886,-4.757578584,La11In9Ni4
mp-22705,0,-2.992012427,5.738214879,0.106349154,-137.3903313,-6.869516565,BaPrO3
mp-1800,0,-0.167341698,6.738086394,0,-152.1732815,-7.608664076,Nd2C3
mp-540829,0.6512,-2.035596725,3.585773508,0,-228.6588011,-4.763725023,RuF5
mp-31744,0,-2.321348495,2.971155026,0.12290551,-331.0478948,-7.196693365,Cr3(PO4)4
mp-19168,0,-3.017790922,6.450820484,0.01169011,-80.34638165,-8.034638165,LaMnO3
mp-673635,0,-0.164793356,7.4521449,0.002664214,-271.9291058,-8.497784556,Fe3N