id,band_gap,formation_energy_per_atom,density,e_above_hull,energy,energy_per_atom,pretty_formula
mp-625941,1.9116,-1.30136471,3.008500051,0.091592246,-64.85706748,-4.989005191,Te(HO)6
mp-6257,3.2656,-2.912469248,3.696896903,,-154.0418047,-7.702090234,CsNb(BO3)2
mp-768674,1.5144,-1.055572005,4.32554831,0,-200.4882599,-4.773529999,Cs4Zr3Se14
mp-763916,2.0458,-2.116177213,4.015410066,0.160321271,-107.9241399,-6.348478815,Li5Cr3FeO8
mp-6467,0.493,-2.39885641,2.944951225,0,-151.9337345,-6.330572272,Na2CuP2O7
mp-697268,2.8033,-1.155147093,3.48772436,0.060920916,-341.1636795,-5.330682493,AgH2SNO3
mp-5598,2.927,-3.551619931,6.729963094,0,-39.10804679,-7.821609358,Sm2SO2
mp-980947,0,-0.532840796,7.276272989,0.017662717,-6.42509224,-1.60627306,SrCaHg2
mp-984052,1.7477,-2.510804726,5.823570955,0,-169.6385541,-6.05851979,Ba(LuS2)2
mp-557577,3.6385,-3.060705635,2.83936187,0,-179.7765079,-6.914481072,K3ScSi2O7
mp-975658,0,0.01892589,8.062600936,0.01892589,-36.8843265,-4.610540813,PrHo3
mp-759925,1.4529,-1.255945111,5.739463396,0,-347.8601236,-4.57710689,Zn2Hg2H2Se2O11
mp-760680,0,-0.519058662,6.172876896,0,-154.1027081,-7.338224194,Li2Fe12P7
mp-776337,1.7118,-2.348843939,5.588607442,0.005825727,-391.7649854,-9.794124636,Zr2N2O
mp-753260,2.8324,-2.58912965,5.827898636,0.000231054,-26.56461409,-6.641153523,LaAgO2
mp-8873,4.523,-2.513588261,3.5250516,0,-47.71002404,-6.81571772,LiGeBO4
mp-568672,0,-0.782646405,12.9051117,0,-69.45340068,-5.78778339,YbGeIr
mp-761683,3.2426,-2.391028447,2.601709936,0.046818078,-103.3513005,-5.741738916,Na4TiO4
mp-10848,0,-0.581307242,6.453749111,0,-60.13729583,-5.011441319,AsPdS
mp-13396,0,-0.414829912,8.068179781,0,-16.41794689,-4.104486723,LiIn2Rh
mp-560860,1.4808,-1.512615933,6.854522815,0,-121.9542925,-5.081428853,Na2PtO3
mp-768003,0,-2.352199022,2.793120261,0.004403114,-337.7882598,-6.755765197,Na5Mn2P2(CO7)2
mp-15221,2.0005,-1.389699237,3.207491841,0,-82.44152884,-5.152595553,Rb2NbCuS4
mp-643829,5.5699,-2.869105468,3.591333096,0.082155034,-197.6102242,-7.057508006,AlSiHO4
mp-22982,0.4641,-0.609173498,6.251850578,0,-69.45227307,-4.340767067,CuBiS2
mp-10952,0.0185,-0.618392204,5.354200258,0,-31.92983297,-3.991229121,Cu2HgGeS4
mp-28589,2.8833,-1.202736235,3.557806154,0.000392157,-152.5241124,-3.177585675,Rb3Ge2Br7
mp-976863,0,0.330976534,7.274927445,0.330976534,-13.4490302,-3.36225755,NaTm3
mp-640825,0,-0.664368364,6.70281272,0,-91.90048362,-3.534633985,Sr5(InBi3)2
mp-999298,0,-0.06457558,13.33996211,0,-19.0663498,-4.76658745,Pd3Au
mp-755684,3.5008,-1.631361296,3.749466678,0.03828977,-58.9705001,-3.276138894,SrCa2I6
mp-569671,0,-0.715658848,7.671287725,0,-56.4247435,-7.053092938,ZrSb
mp-556809,0,-2.6212677,6.168485203,0,-534.1095111,-6.847557835,Sr11(OsO6)4
mp-30456,0.5753,-0.828361277,5.691544627,0,-39.9014191,-3.325118258,SrLiBi
mp-561095,4.1635,-3.327639981,6.718219229,0.001812261,-229.5646238,-7.173894494,LiHo3Ge2(O4F)2
mp-18852,4.3941,-2.214889128,3.462291529,0,-84.83606155,-6.059718682,Na2MoO4
mp-674493,0,-0.790310222,4.685982953,0.085195109,-61.3436377,-4.381688407,In2NiS4
mp-770545,0.653,-2.606203414,3.637600237,0.075921238,-193.7154574,-6.918409193,LiAlCrO4
mp-636368,0.2351,-0.231159751,6.899044624,0,-73.90590329,-4.619118956,Ga3Fe
mp-616166,0,-2.261860826,6.602018159,0.004360494,-73.22594698,-6.102162248,Ba2Ho(CuO2)3
mp-11230,0,-0.312580398,4.241096216,0,-70.4824507,-5.873537558,Y2Al
mp-638590,0.227,-0.192914868,6.704630119,0.005470376,-32.62887327,-4.078609159,MnTl2GeTe4
mp-23024,5.0003,-3.230715002,4.555674481,0,-28.85152656,-4.80858776,SrBrF
mp-652366,2.4043,-1.709726521,7.223126608,0.011519784,-668.6895643,-5.970442538,MoPb5O8
mp-570412,0,-0.972644017,8.43175147,0,-28.7681596,-5.75363192,Yb(NiP)2
mp-850222,0,-1.458263569,4.612159283,0.116952068,-37.10890392,-6.18481732,FeO2
mp-19764,0,-0.273105125,7.005965436,0,-18.1953232,-4.5488308,Pr3In
mp-616190,0.9844,-0.420799999,8.615722806,0,-270.5250656,-6.148296946,Tl2(ReSe2)3
mp-998711,3.3842,-2.323376924,5.225375033,0,-45.73646079,-4.573646079,TlGeF3
mp-973308,0,-0.02865831,5.974935362,0.009638803,-9.97454321,-2.493635803,MgIn3
mp-778152,1.8069,-2.374635892,7.932155113,0,-160.9692661,-7.316784824,Sc2Pt2O7
mp-3958,0,-0.721940631,11.99043333,0,-41.46113053,-8.292226106,Er(SiOs)2
mp-754162,3.0626,-3.220057178,5.86713856,0.008787206,-149.2977612,-9.331110073,LiGdO2
mp-978928,0,-0.800729789,4.802956067,0.240287526,-13.729416,-3.432354,SnCl
mp-5506,0,-0.295031918,3.475027518,0,-86.98637577,-4.349318789,Ba(AlSi)2
mp-777672,3.0807,-2.84911882,3.283863089,0.065933574,-52.28409604,-5.228409604,LiFeF3
mp-972889,0,-0.253694455,6.625009307,0.096298078,-38.75101442,-4.843876803,ScSn3
mp-27657,5.639,-3.0861582,2.793524762,0,-596.8132883,-7.852806424,Ca2B6O11
mp-864995,0,-0.429203089,5.13766842,0,-35.13313159,-4.391641449,DyAl3
mp-19967,0,-0.547684561,8.335782273,0.014783805,-83.01395571,-6.917829643,LuMnSi
mp-31033,5.3947,-4.15026364,6.888962035,0,-218.3264793,-7.277549309,HfF4
mp-8708,1.9355,-2.044073927,5.585914019,0,-84.00158498,-3.818253863,Mg(AuF4)2
mp-998366,0,-0.76022435,3.987077481,0.015287682,-13.19419797,-2.638839594,RbSeBr3
mp-755213,4.1309,-2.835307281,7.032478054,0,-150.4403737,-7.522018684,YbCO3
mp-767534,0,-2.049906991,2.919135807,0,-151.190307,-6.299596124,Na2CuPCO7
mp-2947,0,-0.685415186,9.793291718,0,-44.22670717,-7.371117862,SmB2Rh3
mp-30814,0,-0.379070549,7.532678675,0.07636975,-148.0699299,-7.403496495,Zr9Ni11
mp-776691,2.7168,-3.027759287,2.703670285,0.093955019,-379.7896603,-5.274856393,Li3VF5
mp-759287,0.2142,-1.85919661,4.367011865,0.112398113,-47.29558518,-5.911948148,LiCu2PO4
mp-38771,1.3721,-2.199511454,5.331667725,0.073460181,-118.0508128,-8.432200912,Gd2MgS4
mp-775210,0.2012,-2.364903063,3.602926821,0.032858738,-235.2900996,-6.920297047,Sb3P6WO24
mp-510596,0,-1.791632581,7.087393661,0,-58.54473691,-7.318092114,EuCuSeO
mp-866036,0,-2.175124025,7.900984194,0.120706095,-43.11151608,-8.622303216,EuRuO3
mp-973283,0,-0.34168382,10.02275018,0,-16.12801303,-4.032003258,HoLuAg2
mp-866221,0,-0.779491721,12.11180953,0,-31.77546798,-7.943866995,HfSnRh2
mp-775705,1.3985,-2.380526776,4.731246537,0.050192467,-186.912223,-6.675436537,Li4Ti2Fe3Sn3O16
mp-768786,2.6536,-1.4963983,4.349974652,0.097755751,-105.8482485,-3.780294588,BaYI5
mp-972121,0,-0.213277012,4.936412766,0.005781246,-75.7824203,-5.829416946,Tm(Al2Cr)4
mp-973951,0,-0.650351235,11.11380557,0,-23.09937277,-5.774843193,Lu2CuRh
mp-20939,0,-0.382312499,10.36669303,0,-17.41734724,-4.35433681,PrPb3
mp-683991,0.3189,-0.596724784,6.185460403,0.032517351,-293.2569479,-4.312602175,Cu4Bi4S9
mp-22036,0,-0.748818214,8.815970199,0,-80.39785909,-6.699821591,ZrSbPd
mp-558128,3.6165,-3.383133412,5.517636219,0,-159.8869798,-7.994348991,KNd2NbO6
mp-684021,0.6014,-0.642897523,4.484357365,0.051951128,-201.2515022,-4.375032656,Sn4Sb6S13
mp-583724,0,-0.566731557,7.312826177,0,-77.75898171,-3.887949086,Yb7Al5Ge8
mp-627606,1.5007,-1.83253916,2.277277125,0.079396171,-237.4248639,-6.248022733,V3(H3O5)2
mp-567395,0,-0.351307698,4.669792987,0,-96.77784507,-2.546785397,Li15Au4
mp-753380,0,-2.288921445,7.887947898,0.097699298,-45.65119228,-6.521598897,La(BiO2)2
mp-4810,0,-0.577950451,7.930921296,0,-31.1389148,-6.22778296,Pr(CoGe)2
mp-757077,0.2113,-2.808655149,2.837220118,0.1053776,-222.7872654,-7.186685981,Li2Cu2Si8O19
mp-18889,0.9581,-1.261567123,5.88663585,0,-85.76284762,-5.360177976,VAg3O4
mp-31064,5.6619,-0.378351987,0.889529622,0,-173.7059643,-5.108998949,B6H10N
mp-18256,5.1537,-3.039412832,2.820459972,0,-260.2100582,-7.228057172,Mg2B2O5
mp-23569,1.5625,-1.298972682,3.794681947,0,-107.6256316,-3.843772558,AsSe6IF6
mp-600084,5.549,-3.276304845,1.84222375,0.012846171,-1517.251973,-7.902354027,SiO2
mp-754334,4.1184,-3.213462702,6.989228836,0.015700454,-54.24652197,-6.780815246,NaTmO2
mp-756722,0,-3.285744221,9.549168061,0.104751519,-55.81665316,-6.977081645,YbPrO2
mp-9535,2.5678,-2.707283993,4.133095363,0,-142.2744858,-6.185847207,Al6Cd4TeO12
mp-758996,4.9854,-1.637794644,2.371996534,0.016232154,-312.3374801,-5.479604914,Zn5P6H22(NO11)2
mp-7738,1.7263,-3.160276669,6.125473438,0,-38.63494217,-6.439157028,LaSeF
mp-555825,4.6001,-3.172738587,2.978750629,0,-670.5453355,-7.288536255,Na4Sc2Si4O13
mp-862857,0,-1.496998894,7.546043107,0,-51.75722427,-6.469653034,PaS3
mp-3638,0,-2.040312681,3.883390158,0,-142.0930381,-6.45877446,Cu2P2O7
mp-8932,1.2768,-0.468304933,3.43954243,0,-40.75442127,-4.075442127,Cs2SiP2
mp-29647,0,-0.768520093,7.474787882,0.023202058,-61.10640731,-5.092200609,SmSb2
mp-21554,3.7225,-2.396429621,6.824894159,0,-274.3985943,-6.533299865,P3Pb5O12F
mp-570853,0,-1.467949479,5.11704255,0.00088545,-45.00462085,-3.750385071,SrCeI4
mp-1153,3.4112,-1.560760765,1.629551749,0,-11.96264613,-3.98754871,Li2S
mp-743,4.1736,-0.418052606,2.672433515,0,-53.09231891,-6.636539864,RbN3
mp-650929,2.1933,-3.358491459,3.624828482,0.033453445,-254.8075816,-8.493586054,Na2Ti9O19
mp-570411,1.646,-1.077226476,2.936165561,0,-300.0377288,-3.261279661,K12In2Se9
mp-555795,0,-1.973316416,3.993051588,0.057615974,-401.9388897,-7.177480173,Y2CrS4
mp-6488,3.0609,-2.587020245,3.297344844,0,-443.8683307,-6.935442667,KTiAsO5
mp-11261,0,-0.85598569,10.04366088,0.03154871,-11.45297716,-5.72648858,YAu
mp-32024,0.9589,-2.552294197,2.892341616,0.032870281,-277.3459309,-6.933648273,Li3Mn2(PO4)3
mp-775993,0,-2.575633688,3.262364098,0.01749617,-266.6499616,-7.406943378,TiMn2Fe3(PO4)6
mp-1884,0,-0.629430943,3.12390295,0,-57.83032027,-3.614395017,Ca5Ge3
mp-555508,3.5249,-3.392079942,2.935732747,0.025052622,-238.5971214,-7.017562394,Ca11Si4SO18
mp-778622,1.9238,-2.559542118,2.891071475,0.068548403,-200.4653346,-6.682177821,Li3Fe2(SiO4)2
mp-29698,2.0193,-2.924030938,4.121678399,0.022615465,-373.3700606,-8.485683195,Nb3ClO7
mp-558219,2.9085,-1.269551339,2.229089418,0,-116.7583635,-5.307198339,SrLi(BS2)3
mp-672262,2.9486,-2.67447443,5.636566718,0.008027184,-152.6538183,-6.637122533,La3Zn3Ge2SbO14
mp-31508,3.0674,-1.150804533,5.242924101,0,-103.4591534,-3.233098543,KPb2Br5
mp-680008,0,-1.021320233,1.798211283,0.011997343,-481.7155581,-5.236038675,P6N6Cl10O
mp-721287,3.2541,-1.475998992,1.900157765,0.038146468,-285.1038016,-4.915582786,Na3AsH14SO10
mp-553121,0,-2.967372666,6.936357066,0.094904682,-68.48290234,-6.848290234,Sm2IO2
mp-510098,0,-0.410405827,14.24157398,0,-29.12117437,-4.853529062,EuAu5
mp-755974,0,-1.331229483,3.472455304,0.057282348,-21.88507312,-4.377014624,Na2CuO2
mp-767265,1.8282,-1.692501418,8.695610812,0.01162766,-385.61503,-5.842651969,V(Bi5O8)5
mp-865992,0,-0.766326824,11.84447117,0,-23.29741844,-5.82435461,YbSnRh2
mp-30722,0,-0.22639465,12.0168761,0,-16.29837401,-2.037296751,ScHg3
mp-19461,4.7864,-2.404261104,5.169141677,0.000806062,-352.0500789,-6.770193825,Na5Nd(WO4)4
mp-20566,0,-0.022796377,6.020965864,0.015500736,-9.95109548,-2.48777387,MgIn3
mp-6194,2.0893,-2.484352765,3.312656394,0,-274.2088478,-7.21602231,K4UC3O11
mp-1018123,0,-0.424428116,14.16267622,0,-15.71765496,-5.23921832,TiAu2
mp-778485,2.6626,-2.545916759,5.391173922,0.004103245,-467.584739,-6.152430776,Ba2Ga6O11
mp-542642,1.4454,-0.692167383,4.00795947,0.010907038,-59.94139559,-3.746337224,KSbSe2
mp-743988,3.5889,-1.476976464,1.798524518,0.099141525,-239.0497648,-5.976244121,Na3CrH14(C3O8)2
mp-768979,4.3262,-2.790349265,3.212308115,0.057020259,-324.762794,-4.775923441,Ba3Y2Cl12
mp-770571,3.7762,-3.329910002,8.45370968,0.004720598,-292.3697234,-8.121381207,Ho2WO6
mp-773672,0,-2.371880967,3.388266829,0.074650608,-258.8961354,-7.191559317,MnFe(PO4)2
mp-971855,0,-0.765171687,7.481701986,0,-130.1292845,-6.506464225,Tm2Co3Si5
mp-604594,0,-0.588138961,9.024257958,0.025953553,-105.620069,-4.800912229,Ce2In5Pd4
mp-755256,3.3122,-2.427270709,5.267159881,0.080648504,-62.14078311,-6.904531457,LiBiB2O5
mp-11902,1.4002,-1.354760656,4.836848314,0,-63.82651153,-4.559036538,Ba2GeSe4
mp-741593,0,-2.393078472,6.569944975,0.146074733,-195.4958982,-6.741237869,Ba4Y2Cu4W2O17
mp-554082,3.122,-4.035329817,9.224807033,0.014043641,-206.076227,-9.367101229,Ho2Hf2O7
mp-722684,5.6447,-2.488333689,2.483299131,0,-158.3463828,-6.597765948,KAlP4(H2O7)2
mp-676780,0,-0.442568995,5.482849836,0,-128.08759,-6.4043795,LiMn9Se10
mp-30468,0,-0.529872658,11.92590109,0.012781681,-12.36789412,-6.18394706,ThBi
mp-31024,0,-2.164217977,2.855895646,0,-81.21801835,-5.801287025,Sc5CCl8
mp-22053,0,-0.660800175,4.259441764,0.040598647,-40.42523716,-5.053154645,FeCu2GeS4
mp-765360,0,-0.789686767,12.06171893,0.046803688,-166.8197626,-5.752405606,Ni(Pt3O4)4
mp-26407,4.1199,-2.564962895,3.252510373,0.026475551,-316.0375701,-6.584116043,Li2SnP2O7
mp-12073,0,-0.488014849,9.960607029,0,-35.44937487,-7.089874974,Ba(BIr)2
mp-10596,0,-0.000860175,19.2901849,0,-35.05475224,-8.76368806,FeIr3
mp-676713,0,-2.638637993,5.916497136,0.422087331,-271.8443128,-8.237706447,Hf8PbO24
mp-862,0,-0.365251438,2.574122129,0.01628463,-27.89736688,-4.649561147,CaSi2
mp-1549,0,-1.004401842,17.51900448,0,-26.81555876,-6.70388969,TbPt3
mp-9848,0,-0.533148825,3.733536486,0,-70.06309229,-5.838591024,PrP5
mp-779979,1.9602,-2.547212292,10.37814332,0.004165107,-422.2070132,-10.55517533,Hf2N2O
mp-578752,0.8611,-1.00831206,4.901832718,0,-159.1942291,-3.790338787,Sr11InSb9
mp-31305,1.0253,-1.090746972,4.508945134,0.005847903,-202.0461403,-3.885502698,Hf(TeCl)6
mp-755943,2.6263,-1.070388517,4.226084549,0.090399282,-72.80933914,-3.033722464,CaPbI4
mp-2133,0.7317,-1.800680679,5.437863971,0,-18.20120675,-4.550301688,ZnO
mp-10117,0,-0.310714663,7.405741454,0,-169.4600193,-5.843448941,Mg3(Ni10B3)2
mp-631466,0,0.949640215,3.422112353,1.151360086,-17.08684191,-4.271710478,KSc2Co
mp-613910,0.4727,-2.600140937,4.543540459,0,-34.86327844,-4.357909805,BaNiF6
mp-776618,1.8945,-2.427332081,4.058682881,6.30E-05,-110.5488423,-6.909302646,Li4VCr3O8
mp-755277,2.7605,-3.4415065,7.803387972,3.08E-05,-170.9024363,-7.768292557,Tb3SbO7
mp-766572,5.0338,-1.97391937,2.113270233,0.013690766,-416.2520798,-5.625028106,Mg3P2(HO)16
mp-605735,0,-0.468237494,5.901868544,0.0092989,-47.01393061,-2.938370663,Sr3In4Pb
mp-862291,0,-0.679928945,9.421295974,0,-24.17376078,-6.043440195,BeGaRh2
mp-19213,0.0103,-1.167909844,5.250014601,0,-78.92492415,-5.637494582,Ba2Mn2Sb2O
mp-568917,0,-0.373140051,8.175211063,0,-14.82835722,-3.707089305,LaInAg2
mp-6915,0,-1.394975435,5.869564121,0.015365815,-52.3870955,-5.820788389,As2PdO6
mp-13149,0,-0.382810132,3.806506186,0,-12.2464444,-4.082148133,BaAlSi
mp-558428,4.3063,-3.46299331,4.859447537,0.006743109,-305.9550104,-7.462317326,Ba9Sc2(SiO4)6
mp-3867,0,-0.27336778,8.249838381,0.033943144,-165.3066329,-6.88777637,Pr2Co7B3
mp-16598,3.7556,-3.114741028,3.719599607,0,-532.4181316,-6.825873483,K3TmSi2O7
mp-542767,0.1364,-2.910618228,6.497682406,0,-143.1539551,-7.157697754,Sr2TmRuO6
mp-744260,3.7484,-2.610860816,4.369467705,0.007956934,-693.111213,-7.219908469,LiLa(MoO4)2
mp-15003,4.6792,-3.603807526,4.141093122,0,-475.6263845,-7.927106409,Ca3HfSi2O9
mp-22814,0,-0.577813494,7.921377516,0.024400268,-146.3595292,-8.131084958,U2Ti3Si4
mp-976447,4.0045,-1.795553741,2.320738665,0.013082394,-91.62821119,-5.090456177,NaCrH8(NF3)2
mp-573710,2.1028,-1.418610102,5.263982541,0,-51.55168083,-4.295973403,CsTbZnSe3
mp-6080,0,-2.022271614,5.11110433,0.077737188,-108.1746327,-6.009701817,BaNd2CoS5
mp-21399,0,-0.426008435,7.470398518,0.049524304,-41.988688,-6.998114667,CeMnGe
mp-3188,0.5422,-1.90491983,6.323802523,0,-104.0605778,-5.781143209,Zn(SbO3)2
mp-541403,1.3402,-0.278507176,7.063837334,0.023180312,-76.54744241,-2.251395365,Hg7(P2Br3)2
mp-772497,5.5841,-3.399028038,6.774019832,0.041364259,-413.4254663,-8.268509327,Er4(B2O5)3
mp-976582,0,0.077409556,8.939895274,0.388325225,-44.05325649,-5.506657061,HfSb3
mp-13429,0,-0.660518759,8.303329627,0,-57.52877411,-5.752877411,La2CdRh2
mp-777010,1.2056,-2.630040519,3.907166515,0.057515965,-205.2506549,-7.330380534,Li4Ti3V3(CoO8)2
mp-863673,0,-0.375907916,7.186013955,0,-20.25146702,-5.062866755,LiPm2Rh
mp-22897,2.7385,-0.838747309,6.256326399,0,-6.47007209,-1.617518023,HgCl
mp-569851,0,-0.66909002,6.713993182,0,-156.0764402,-5.780608896,Ho10Si17
mp-695,0,-0.299389964,7.522613977,0.00257498,-46.03057185,-7.671761975,TiCo2
mp-540550,5.2933,-1.202700433,2.008910904,0.009599391,-164.1124227,-4.558678409,NaH2ClO5
mp-774463,2.8011,-2.637160116,2.964077422,0.043924707,-281.3217867,-7.033044667,Li3Cr2(PO4)3
mp-558011,2.7656,-1.744262702,4.306014357,0,-225.2749657,-5.119885585,Cd2H2SO6
mp-17187,4.9195,-2.991952853,3.572237732,0,-189.2286974,-6.758167765,K3Nd(PO4)2
mp-28826,0,-0.261645836,7.556849475,0,-237.5993397,-10.79996999,Gd3(MnC3)2
mp-20436,0,-0.836225852,11.65452092,0,-108.5455591,-9.04546326,TaSiRh
mp-30958,3.0095,-1.264116123,2.658879602,0.04413309,-456.7900199,-5.437976427,Ca(BS2)2
mp-999545,0,0.026374007,8.127256002,0.026374007,-35.83208262,-8.958020655,Mn3Fe
mp-776059,0.191,-2.785446192,3.32283169,0.062593141,-278.4453035,-7.734591764,Ti3NbCo2(PO4)6
mp-769554,2.4153,-2.234699009,2.81533065,0.008642209,-226.8183603,-6.48052458,LiMgCr3(SO4)6
mp-780111,0,-2.465353153,3.153457366,0.055785543,-252.4709255,-7.425615455,Li2Mn3(BO3)3
mp-773582,1.2835,-0.592520455,1.727770117,0,-172.8049693,-4.800138037,LiTe(H3N)4
mp-2730,0,-0.16813693,7.37873589,0,-3.78237944,-1.89118972,HgTe
mp-625452,3.812,-2.277193396,4.47447276,0.002028951,-86.24498157,-6.160355826,Pr(HO)3
mp-31294,0,-0.491361906,6.881505526,0,-29.75709091,-4.251012987,Sr2In3Rh2
mp-972470,0,-1.64233305,4.818098006,0.018105614,-186.7802234,-5.836881982,V2Cu3Pb(ClO4)2
mp-558749,2.9656,-3.027963134,4.087535508,0,-27.89639765,-5.57927953,RbMnF3
mp-765195,1.6288,-2.317794835,6.192863156,0.011433069,-55.50637195,-6.938296494,WO2F
mp-530571,2.3778,-2.080230256,4.675352235,0.013051134,-329.5862952,-5.49310492,Na4Sn3O8
mp-867356,0,-0.068284636,11.8520025,0,-76.85934553,-9.607418191,TcRu3
mp-561307,2.7667,-2.591163544,5.117091533,0,-68.38881618,-5.699068015,DySCl
mp-626689,2.28,-1.500623871,3.402823612,0.012569152,-28.16225393,-5.632450786,Fe(HO)2
mp-40286,1.6797,-3.460167251,4.786491514,0.037484328,-164.608394,-8.230419699,NaLiLa2Ti4O12
mp-864664,1.253,-2.288766956,4.241207074,0,-152.5184564,-6.354935685,Na3Np(HO3)2
mp-753298,0,-3.173851086,6.96099548,0.102380564,-32.39930033,-8.099825083,PrYO2
mp-997040,0,-0.115980741,5.476870771,0.222497426,-29.86401951,-3.733002439,AuBrO2
mp-680055,2.3639,-0.590485837,5.055977596,0.001651162,-62.9674138,-1.908103448,CdI2
mp-755526,1.8972,-3.212262524,4.57539143,0.01896695,-181.0849759,-8.623094091,Ba2Ti6N2O11
mp-625614,3.9354,-1.242170444,1.779384176,0.018910153,-260.3307669,-4.648763694,H9BrO4
mp-30371,0,-0.171411944,11.57456442,0,-31.53166443,-1.970729027,Cd5Au3
mp-2221,0,-0.109655829,7.42832992,0,-20.25268498,-6.750894993,Zr2Ag
mp-31039,0.8487,-1.791978266,4.057292236,0,-161.7707846,-4.757964254,Rb6Te2O9
mp-24502,4.6505,-1.839656858,2.794470375,0,-144.8159958,-5.569845992,ZnH2(SO4)2
mp-580541,5.0722,-2.475981118,3.225471383,0,-40.12844778,-4.012844778,Cs2NaSmCl6
mp-694945,0,-2.516435045,6.802954428,0.044310166,-349.7188826,-6.994377652,Ba3La7Mn2(Co4O15)2
mp-984784,0,-0.235643115,4.997622108,0.008611995,-6.97932096,-1.74483024,Ba2ZnCd
mp-571293,1.5115,-0.888620589,4.593988764,0,-307.1454396,-4.799147493,Rb2BaNb2Se11
mp-16915,3.3404,-3.950209531,4.447897103,0,-189.5272138,-6.768829066,BaTiOF4
mp-2310,1.2577,-0.86171638,6.075566231,0.062158711,-49.69941551,-4.141617959,CdO2
mp-2435,0,-0.112916736,9.268921417,0.024909808,-40.8055339,-6.800922317,HoCo5
mp-2613,0,-0.147806378,7.947285473,0,-26.30989115,-4.384981858,LaCu5
mp-572951,4.4582,-2.925267183,3.296627791,0,-484.3512521,-6.727100723,CsNaSi2O5
mp-6526,1.9731,-2.099086425,4.789233146,0,-96.02652261,-6.001657663,NaGeSbO5
mp-1019601,2.1244,-3.805759266,5.96532399,0.045990731,-224.7278424,-9.3636601,CeZr7O16
mp-770647,3.2726,-2.40245491,3.250076825,0.084038003,-161.7809975,-6.740874895,Li2SiSnCO7
mp-20176,0,-0.273888163,11.08135768,0,-16.80541234,-4.201353085,DyPb3
mp-769552,2.4957,-2.011680938,3.043134105,0.002591205,-219.0628896,-6.258939703,LiMgCr3Se2(SO6)4
mp-23520,1.8615,-0.567185595,6.114254895,0.056452423,-44.57516632,-2.785947895,InPb2I5