id,band_gap,formation_energy_per_atom,density,e_above_hull,energy,energy_per_atom,pretty_formula
mp-677489,0,-2.946618558,4.121184955,0.056000335,-101.4810851,-5.637838062,CsTiCuOF5
mp-764557,2.2666,-2.745616317,2.910594417,0.036066835,-174.8742501,-5.829141668,V6O5F19
mp-20619,0,-0.504455026,9.793323221,0,-49.93277677,-6.241597096,SbRh
mp-16726,0,-0.092550098,1.089188014,0.075559768,-35.08639776,-4.38579972,LiB
mp-555393,2.3298,-1.67251051,7.510913399,0,-740.7938729,-5.447013771,KBi6BrO9
mp-570061,3.373,-2.555986351,4.41420113,0.008787183,-442.6458262,-5.533072828,Nd3NCl6
mp-28293,2.4075,-1.251512014,2.355375354,0.006719811,-68.94096548,-3.133680249,SnPCl9
mp-13554,0,-1.473969062,9.218079553,0.063697162,-48.72435756,-4.872435756,SnHgO3
mp-8248,3.6011,-1.835442486,3.857665405,0,-57.73476112,-4.811230093,Rb2TeO3
mp-10106,0,-0.947253603,3.103291904,0.043381959,-22.98838429,-3.831397382,Ca2As
mp-975601,0,-0.280060285,6.235129748,0.634173626,-33.45027296,-4.18128412,Pr3Cl
mp-555066,0,-1.011377581,5.915551908,0.03341678,-111.7615423,-7.450769486,Mo6PbS8
mp-776655,0,-3.243599876,4.296766164,0.079341414,-178.7659986,-8.938299932,Ti2O3
mp-580357,0,-0.107083437,9.623131067,0,-17.90435251,-4.476088128,Cu3Pd
mp-31116,3.8831,-3.97240215,5.675110311,0,-175.2015396,-8.760076982,LaScO3
mp-974435,0,-0.129712616,18.95047879,0,-45.80289426,-11.45072357,Re3N
mp-764786,2.7767,-2.4573306,2.577898215,0.094306306,-97.04039152,-5.391132862,Li4Mn(OF)2
mp-556953,1.8334,-1.072258057,2.291127657,0,-44.36174542,-4.436174542,RbPS3
mp-1646,0,-0.279404367,5.233842408,0,-7.14522587,-1.786306468,Li3Hg
mp-975650,0,-0.367643951,8.250175487,0.023739792,-12.61445599,-3.153613998,Pr2ZnHg
mp-706271,3.0416,-2.577751065,3.185858244,0.021501596,-107.2176397,-5.360881985,K2NaMo(OF)3
mp-530274,0,-0.057292038,3.044723169,0,-424.3150216,-5.812534543,Al23B50
mp-675420,1.4947,-1.398675049,6.328821784,0.08825439,-134.802689,-5.184718806,Pr4Ag2Se7
mp-21371,0,-0.599151158,6.328480068,0,-93.64788128,-7.803990107,VCoSi
mp-867200,0,0,6.962275078,0,-18.98584957,-4.746462393,Pm
mp-864913,0,-3.488263533,4.591043611,0.013589483,-68.53216427,-5.711013689,Na3UF8
mp-770430,2.4874,-3.508162934,8.851451136,0.02368336,-533.1745393,-10.25335653,GdTa3O9
mp-2134,0,-0.411567349,5.432524842,0.002223238,-17.45799013,-4.364497533,ErAl3
mp-778347,3.103,-2.914942622,3.361891544,0.011060993,-123.2266392,-5.134443298,LiFeF4
mp-558134,3.0045,-1.972866132,7.921891294,0.004482304,-30.93292627,-3.866615784,TlF
mp-631537,0,0.851191495,9.886416973,1.261406673,-20.29830982,-6.766103273,BeReB
mp-696490,5.0827,-2.37938828,2.43238002,0.073151886,-311.7194159,-5.994604151,Ca2H2S2O7
mp-18531,1.438,-0.68249056,4.608235819,0,-94.70778908,-2.630771919,K2Cd3Te4
mp-867812,0,-0.390815968,5.466501465,0,-18.77585266,-4.693963165,LiAlNi2
mp-20595,0,-0.344716448,4.019023629,0,-30.36105419,-6.072210838,Eu(AlSi)2
mp-773602,0.7133,-1.283763892,4.474281839,0.02645891,-72.40287036,-6.03357253,MnCo3O8
mp-2017,0,-1.472442408,8.930006998,0,-12.11859538,-6.05929769,LuAs
mp-574529,1.3831,-1.309264686,2.374069103,0,-199.2588697,-3.558194102,Al(SeCl2)2
mp-626279,3.891,-1.481321905,1.680989218,0.01685527,-272.1958494,-5.040663878,Ca(H8O5)2
mp-722189,2.4169,-0.921693992,3.314666998,0.068042686,-145.3312176,-4.844373919,H8PtN2(ClO)2
mp-17288,3.7837,-2.656968946,3.264091201,0,-194.7020065,-6.084437703,Li2ZnSiO4
mp-865986,0,-0.424122505,2.876269216,0.001219607,-12.13747632,-3.03436908,Li2CaGe
mp-31419,3.0573,-2.204898553,5.908823851,0,-115.9684789,-6.442693271,LaSb5O12
mp-995183,0,-0.785365981,2.169403774,0.555507478,-60.09048294,-7.511310368,CO
mp-16236,0.4838,-0.668810074,4.626412262,0,-18.86987506,-3.144979177,KAgSe
mp-467,1.482,-1.82959216,10.44819935,0,-66.84674548,-9.549535069,Th3N4
mp-13630,6.6192,-3.311024723,3.320568189,0,-69.56574714,-4.968981939,Rb3NaBe2F8
mp-2951,1.4856,-1.885811373,5.650766991,0.001367492,-110.583132,-5.5291566,CdGeO3
mp-998159,0,-2.452626418,6.886200969,0,-24.61856253,-4.923712506,TlFeF3
mp-30321,5.6411,-3.183051837,3.119267502,0.00295867,-299.9906562,-7.894490951,Y2P4O13
mp-581864,1.5081,-0.63540554,4.093830688,0,-120.5108223,-3.765963195,CsAsSe2
mp-641919,3.5221,-3.377503235,2.81383072,0,-939.046255,-7.452748056,KLi3Ca7Ti2Si12(O18F)2
mp-571622,0,-0.103892498,4.587850096,0.113614367,-52.16143749,-4.012418268,Be12Pt
mp-610522,0,-0.163729453,7.413351719,0.018340759,-46.91505725,-7.819176208,Mn2As
mp-3769,0,-0.824456656,10.96038014,0,-37.40903483,-7.481806966,ErBRh3
mp-761916,0.975,-1.00528804,3.947016839,0.006087909,-178.4132632,-3.716942982,NaH4Au(Br2O)2
mp-561033,0.3253,-0.596953507,5.356132492,0.033069651,-74.31537715,-4.128632064,CsCu5S3
mp-777883,4.6931,-2.8177564,2.629058863,0.094735345,-395.2534063,-4.49151598,Ba6YCl15
mp-774235,0.066,-2.060261941,4.356165019,0.120183019,-58.16684052,-7.270855065,LiCr3O4
mp-774365,3.4823,-2.99548967,3.215710066,0.040228887,-191.7257556,-5.991429863,LiMn2F5
mp-568203,1.7402,-0.751857317,4.222039489,0,-274.1732401,-4.569554001,K2Th(PSe3)3
mp-559757,0.1681,-2.248729843,5.177502193,0.026819472,-116.243513,-5.283796046,Ba3Cu2(ClO2)2
mp-10240,0,-1.205931098,5.322018457,0,-84.55352471,-7.046127059,ScNiP
mp-753858,3.8984,-3.586179559,2.540912703,0.052958844,-117.2374442,-7.327340262,TiOF2
mp-5200,0,-0.68074528,9.774092007,0,-36.90674821,-7.381349642,PrBRh3
mp-1601,0,-0.327890435,14.56269279,0,-21.77725713,-10.88862857,TaRu
mp-22014,0,-0.8531417,13.64175934,0,-168.5959918,-8.429799592,Sc2SiB2Ir5
mp-19128,0.712,-1.326840324,5.105816577,0.006644137,-24.23218036,-6.05804509,CoO
mp-771040,3.5501,-1.37113886,4.526599442,0.04768256,-169.3647773,-4.704577148,Mg(IO3)2
mp-554175,5.762,-3.190720163,1.62485725,0.098430853,-375.2049286,-7.816769345,SiO2
mp-2831,0,-0.06488445,9.670925658,0.009770267,-27.53548344,-6.88387086,FePd
mp-7800,3.7139,-3.195598089,6.485182427,0.009231727,-111.438178,-6.964886124,LiSmO2
mp-776627,3.9836,-3.050878275,2.870753568,0,-302.8969942,-5.048283237,Li3FeF6
mp-781598,0.1779,-2.484076647,3.141868311,0.039615982,-340.4047319,-7.400102867,Li3Mn4(BO3)4
mp-864994,0,-0.346197169,13.13470602,0,-13.80260785,-1.725325981,DyHg3
mp-603347,0,-0.375692433,6.629376844,0.022273947,-28.8535374,-7.21338435,TiNi
mp-30771,0,-0.44206354,9.996771993,0,-93.39939037,-5.188855021,Lu6Ni2Sn
mp-13254,0,-0.273082762,5.852856779,0,-11.17664289,-2.794160723,CeMgZn2
mp-979340,2.934,-1.815565886,5.734593049,0,-455.4722424,-7.116753787,Sr2LiTaN3F
mp-17224,0,-2.246786239,3.253113073,0,-241.9937931,-6.722049808,Cu(PO3)2
mp-20452,0,-0.385081581,6.334922141,0,-28.92323069,-2.892323069,Ba(MgPb)2
mp-555983,4.7541,-3.857808,6.87261979,0,-266.218718,-8.319334939,Er2SiO5
mp-1006112,0,0.678743942,2.156368318,0.678743942,-8.41022315,-2.102555788,Na3Co
mp-778795,2.9462,-2.437854588,7.690483409,0.100068697,-413.6311085,-6.893851808,Ta2Zn4O9
mp-705362,0.8797,-2.505455763,2.612245329,0.034065276,-314.2452436,-6.831418339,Li2Co(PO3)5
mp-23218,2.2308,-0.201935774,4.243515946,0,-20.02552512,-2.50319064,AsI3
mp-867355,0.6529,-0.186841967,3.264719085,0.1401996,-13.92194118,-2.32032353,TeBr2
mp-504265,0.3613,-1.891368421,3.677418273,0.004509199,-151.0518316,-6.293826318,CuPO4
mp-768110,2.4439,-3.009063786,3.798858171,0,-434.7261449,-7.762966874,Li2Ti3CoO8
mp-757514,0.3352,-2.478064328,3.23482481,0.076156179,-242.9076015,-6.392305304,Li4Cu2Si3O10
mp-760414,0,-1.460066005,6.369330877,0,-80.79253845,-8.079253845,Ti3PdO
mp-7944,0.4159,-0.315634292,3.931658816,0,-48.77613063,-3.048508164,NaSb
mp-972763,0,-0.067795204,7.099627168,0.267432016,-45.20792242,-5.650990303,Si3Pt
mp-567301,0,-0.512836483,7.280482149,0.07780808,-170.3060308,-2.365361538,YbHg6As4Br7
mp-29878,0.8085,-1.115448867,2.904883371,0,-128.8895066,-4.027797083,Re2PCl13
mp-755530,1.665,-1.351742186,2.923705524,0.010089414,-98.71112138,-4.112963391,Na3CuO2
mp-31147,0,-0.371602748,4.66295355,0,-19.47509179,-3.245848632,BaZnSi
mp-756177,0,-2.395275362,4.890275675,0.06032442,-131.1998715,-6.559993576,Li4ZrNb(TeO6)2
mp-16491,0,-0.405760606,3.512871066,0,-54.50609793,-4.542174828,SrAl9Co2
mp-755065,0,-3.696067602,5.823220722,0.009614004,-195.8091023,-8.900413739,Ce2Ti2O7
mp-768315,3.3252,-1.367813421,4.695463812,0.051008,-169.2450615,-4.701251708,Mg(IO3)2
mp-780113,3.9964,-2.445556499,3.032634646,0.067757667,-329.5091258,-6.864773453,LiMnP2HO7
mp-31100,0,-0.606047902,16.41390527,0.00304658,-104.8499865,-8.737498877,CeIr3
mp-29642,0,-0.276478002,10.19307277,0,-137.3875667,-5.724481945,ZrBi2
mp-628614,0,-0.873190844,9.439236665,0,-362.0130313,-7.541938153,Ce2Si7Rh15
mp-569984,1.1427,-0.836400313,4.336914576,0,-162.1399241,-2.533436313,Cs3Au2Br11
mp-27480,2.6603,-2.223848937,4.85663151,0,-52.41111007,-5.241111007,Sn2OF2
mp-18093,0,-0.166102239,7.184748582,0.050267029,-201.2212902,-8.384220426,Al2Mo3C
mp-972767,0,-0.306923098,3.206540365,0.78531597,-18.92419402,-4.731048505,Si3F
mp-9055,1.063,-2.901830142,4.096070939,0.018736027,-90.94797972,-5.05266554,LiAlPdF6
mp-770692,2.4445,-2.201604002,7.2204364,0.042183948,-239.3715624,-6.649210065,Ga2WO6
mp-573150,3.0623,-2.076585003,4.494788127,0,-378.6273829,-5.258713651,Cs2GeO3
mp-18804,0.197,-2.111867374,5.829407578,0.023041889,-169.0263942,-6.501015163,BaDyCo4O7
mp-30837,0,-0.664778922,11.40218938,0,-42.50067773,-4.722297526,TbTlPd
mp-22318,0,-0.260471798,3.11098055,0,-19.92335023,-3.320558372,SrAl2
mp-601401,3.8732,-0.646857148,1.574224462,0.046996385,-97.36050888,-6.085031805,KCSN
mp-5156,5.3899,-3.302488227,3.666205882,0,-323.3571247,-8.083928118,ThP2O7
mp-12637,3.0549,-3.372247356,6.066852536,,-76.04696502,-7.604696502,Ba2NdNbO6
mp-1001021,0.2395,-1.5089431,4.797173259,0.050804392,-77.45638894,-5.53259921,Y2ZnSe4
mp-989519,2.12,-1.872021526,4.179854531,0.067338312,-38.00330083,-3.800330083,Cs2RbNF6
mp-861636,0,-0.326326175,12.02173726,0,-22.92964484,-5.73241121,Er2ZnOs
mp-756246,0.06,-3.58477027,6.064921297,0.085958237,-175.6628578,-8.783142891,NdZrO3
mp-768983,4.6338,-2.824271251,3.282601747,0.039017038,-189.3449633,-4.733624082,Ba2YCl7
mp-772848,3.8577,-2.318293306,2.94661282,0.031237511,-157.9236341,-6.073985926,K3ZnPCO7
mp-24422,4.1139,-1.390058615,3.252074683,0,-22.08244416,-3.68040736,CaHBr
mp-2491,0,-1.687484402,8.789941767,0,-11.43187941,-5.715939705,ErSe
mp-27349,4.9997,-2.616336447,2.288721332,0,-174.5352964,-4.848202677,BSF7
mp-697170,4.1225,-0.897627143,2.494958267,0,-200.3185098,-4.552693404,MgH6(BrN)2
mp-757660,0.0836,-1.831190505,2.760919086,0.105258923,-194.7835838,-6.086986994,Li2CuCO4
mp-631563,0,0.594315688,9.007663793,0.839532389,-16.39536425,-4.098841063,TlCoAs2
mp-570547,0,-0.604686998,7.249730754,0,-180.3424724,-6.218705945,Sc6Ni16Ge7
mp-9710,3.2012,-1.39171259,3.818112601,0,-229.9803178,-7.666010593,Sr2Si5N8
mp-556910,2.5586,-2.153429621,4.466232534,0,-522.4196201,-5.936586592,Sm3SiS6Cl
mp-10010,0,-0.536863922,5.387587034,0.000830171,-31.5030458,-6.30060916,Al(CoSi)2
mp-28483,1.0698,-0.479880026,4.467703921,0,-26.09287498,-3.727553569,WBr6
mp-570850,0.0109,-0.576545683,4.190177271,0,-85.47674834,-3.561531181,LiCa2InGe2
mp-849493,3.702,-2.964664166,3.100180134,0.026339029,-71.95525173,-5.139660838,Li2FeF4
mp-776313,1.1019,-2.144291918,4.330407528,0.057434685,-373.1765909,-9.329414773,Ti2N2O
mp-984358,0,0.187304793,14.25496233,0.383404625,-26.59612182,-3.324515228,Au3O
mp-705361,1.9382,-2.568533216,2.813353477,0.11940217,-312.7601477,-7.108185174,LiCrP2O7
mp-769573,1.4801,-2.892245223,3.623388473,0.055748773,-163.061048,-7.76481181,LiTiVO4
mp-555845,5.7451,-3.999399136,4.468082691,0.001182474,-193.0892975,-6.436309916,BaLiZr2F11
mp-698475,4.8673,-2.479820479,2.753516301,0.034067572,-495.2550064,-6.349423159,K4ErP6H6ClO21
mp-16737,4.7135,-2.741926006,2.3863986,0,-136.6293855,-6.831469277,Na2BeB2O5
mp-504139,0,-2.213411229,3.073175851,0.078580632,-496.6680833,-6.208351042,Li3Ni2(PO4)3
mp-779539,1.2147,-2.312144838,3.362526058,0.05890186,-97.45570278,-6.090981424,Li2CuPO4
mp-28357,0,-2.359037669,7.237399477,0,-43.13788801,-4.313788801,NbHg3F6
mp-549695,0.8529,-2.444292226,8.042075946,0,-59.59374797,-7.449218496,GdBi2ClO4
mp-29644,0.5969,-0.202913127,7.254217247,0.003878194,-44.64758938,-3.720632448,GeBi4Te7
mp-28558,1.9935,-1.094243881,3.557395346,0,-63.99016968,-3.199508484,RbGeBr3
mp-29240,0,-0.66639057,8.16608401,0.081009782,-95.14725328,-7.928937773,LaSi2Ru3
mp-9550,0,-0.622140061,4.506018201,0,-68.35057099,-7.594507888,ScMnSi
mp-20127,0,-0.950746732,9.754388052,0,-47.86087409,-7.976812348,NpAsSe
mp-10923,0,-0.701499098,6.627364962,0,-141.9245632,-6.758312531,Ca2Co12P7
mp-3686,0,-0.622552883,11.22571546,0,-33.36094263,-6.672188526,YbBRh3
mp-861504,4.6593,-3.468762568,5.419346225,0,-165.9410658,-8.297053292,PrBO3
mp-867254,0,-0.58483887,12.52841583,0,-16.43162142,-4.107905355,SmAgAu2
mp-1385,0,-0.286084095,7.159183174,0,-18.67645833,-3.112743055,CeZn2
mp-975425,0,-1.378158798,5.660117711,0.193980373,-25.23441378,-5.046882756,RbAsO3
mp-7359,0,-0.795841619,6.164474622,0,-23.57726767,-3.929544612,BaAgAs
mp-554364,5.5284,-3.338770774,3.515733736,0.04623788,-403.5214423,-7.20574004,MgBeAl4O8
mp-505141,1.4651,-0.879084535,2.610557817,0,-276.9858966,-4.073322009,Cs2SnS14
mp-865577,0,-0.426147321,8.10755055,0,-9.70889057,-2.427222643,Li2CdAu
mp-863739,0,-0.606215712,11.11693862,0,-22.60088424,-5.65022106,ErCdRh2
mp-18591,3.9539,-2.527170077,3.071652134,0.008433128,-169.5552272,-6.055543828,KZnPO4
mp-28829,3.777,-1.272521035,3.680935408,0.017235566,-82.04991395,-2.93035407,Li2ZnBr4
mp-971661,1.3398,0.081540254,2.081284633,0.081540254,-122.906869,-5.343776911,Si
mp-972569,0,-0.321999477,5.036721079,0.002610698,-75.52416479,-5.809551138,Sm(MnAl2)4
mp-2513,0.1176,-0.525295317,10.27381472,0,-67.71359337,-5.642799448,As2Pt
mp-19745,0,-0.681717229,11.66719677,0,-83.23273639,-9.248081821,GdInIr
mp-974417,0,0.637377567,17.29521264,0.637377567,-38.90940756,-9.72735189,Re3Sb
mp-752682,3.4191,-1.679659481,3.998571486,0.053703441,-88.33143316,-3.271534561,Ba2Sr7I18
mp-558751,2.5446,-2.156304363,6.695878947,0,-334.3886078,-5.971225139,Ca(BiO2)2
mp-569913,0,-1.108211328,13.22489405,0,-126.9726666,-7.054037034,Ce3SiPt5
mp-132,0,0.004892585,1.569030808,0.004892585,-3.99480442,-1.99740221,Ca
mp-1458,0,-0.388944321,11.22804385,0,-81.51804337,-10.18975542,Nb3Ir
mp-865756,0,-0.7701636,10.81959375,0.014178669,-17.99644481,-4.499111203,YbGaPd2
mp-556357,0,-0.629440009,6.606448305,0.011750806,-199.7006101,-5.255279214,Ni18Bi3AsS16
mp-558674,4.0922,-3.018255244,2.975816723,0,-47.99175428,-4.799175428,K2NaFeF6
mp-863372,0,-2.090349089,4.18218411,0.021576902,-149.7719992,-4.16033331,LiCu2F6
mp-1432,0,0.034449401,2.007121087,0.053707773,-14.03417941,-4.678059803,Be2B
mp-755289,4.1806,-3.392094023,4.122916911,0.043777128,-118.3663242,-7.891088282,Li3Y3ZrO8
mp-19827,0,-1.019132858,9.646552343,0,-75.18661554,-6.265551295,CeAlPt
mp-614603,3.8572,-1.548446883,3.554950351,0,-5.51134306,-2.75567153,CsI
mp-567502,0,-0.181861718,7.202251383,0,-242.5284579,-4.664008805,Ga8Cu3Mo2
mp-779759,0,-3.120222541,3.272517775,0.040853221,-208.7860877,-6.140767286,LiV4OF11
mp-20402,1.9313,-4.085057856,9.624004306,0,-166.7816907,-8.777983721,Lu6UO12
mp-3575,4.8226,-3.307199752,3.006517869,0,-162.203252,-7.37287509,Ca3(BO3)2
mp-773184,0.8064,-2.140069805,4.802926303,0.042207908,-98.65992212,-6.166245133,Li2MnSnO4
mp-558289,1.5047,-1.789118541,5.772058284,0,-323.998419,-6.230738828,UAg2(SeO4)2
mp-8000,3.6159,-2.853356634,4.358231602,0,-72.94256148,-7.294256148,SrSn(BO3)2
mp-29746,1.3806,-0.808932601,4.283730219,0,-204.1637796,-2.83560805,Cd4P2Cl3
mp-626504,4.7476,-2.098488467,2.348725746,0.040182058,-81.67195601,-5.833711144,Al(HO)3
mp-667315,0.9298,-2.095261091,3.255301856,0,-576.7267417,-6.268768932,ScNb6Cl13O3
mp-557829,3.0384,-2.225451196,6.391308963,0,-248.4324694,-6.210811735,Lu2Te5O13
mp-12065,0,0.011460958,12.46041541,0.033829779,-14.49700579,-3.624251448,Ag3Pt
mp-1439,2.5301,-3.491992306,4.20027994,0.031387159,-107.3037386,-8.941978218,TiO2
mp-983562,0,0.329428467,2.552424626,0.329428467,-14.92517256,-1.86564657,Na3Nd
mp-721958,5.1958,-2.311167967,2.20848712,0.014794552,-351.8780671,-6.066863227,K4P4(H2O5)3
mp-13792,3.6681,-2.814540758,3.223998097,0,-572.098563,-7.52761267,KTaP4O13
mp-560555,0.8583,-1.858104,5.386123955,0,-109.5227489,-5.215368997,Li8Bi2PdO10
mp-36216,1.0979,-0.272910011,6.468289173,0.005203582,-19.88099143,-3.313498572,Ag2S
mp-9417,0,-2.059774505,6.969982354,0,-88.47803189,-6.319859421,Sm(CuO2)2
mp-756118,4.4562,-3.862391719,7.872934705,0.082833466,-165.3400719,-8.267003593,TbSmO3
mp-19272,0.2496,-2.799255343,5.515559447,0,-91.90472275,-7.658726896,TbCrO4
mp-775695,0.4661,-2.166729834,4.624065173,0.061736566,-185.5346157,-6.626236274,Li4Mn3V2Sb3O16
mp-866162,0,-0.316885646,6.312017128,0,-14.99660884,-3.74915221,YMgAg2
mp-778103,3.391,-2.469244181,4.452165398,0.027102308,-387.6972606,-6.923165367,Cd(BO2)2
mp-560977,1.222,-1.347020888,2.202740347,0,-85.03103161,-5.314439476,KTiPS5
mp-689684,1.1181,-1.716493074,1.654881543,0.744974101,-180.5898647,-6.449638024,P2O5
mp-755574,5.743,-3.803148169,8.216249026,0.021096596,-159.8758337,-7.993791684,LuAlO3
mp-977572,0,-0.552924937,12.89528693,0,-38.62634255,-9.656585638,Hf2MnRh
mp-821,0.7119,-2.910395857,5.562951536,,-407.209675,-8.483534896,NbO2
mp-29699,0.662,-2.917823625,5.13259816,,-173.8332899,-8.691664493,TiNb3O6
mp-978268,0,-0.078125955,4.10324635,0.034355711,-6.06682739,-1.516706848,MgZn
mp-561149,0,-3.742854724,6.91617758,0.037899246,-129.786497,-8.652433131,Ce2O3
mp-16319,0.0916,-0.32247867,3.080717191,0,-16.93371662,-2.116714578,Rb3Sb
mp-760385,0,0.093574757,7.259150979,0.113848725,-16.10333195,-2.683888658,In2Ag
mp-754631,0,-1.145680918,4.378111129,0.078395758,-29.09031715,-4.848386192,NaCu2O3
mp-781010,1.931,-2.385759026,4.169288783,0.076275036,-110.8814344,-5.835864966,Fe7(OF3)3
mp-28157,7.0948,-1.692687122,1.754593751,0.004761944,-317.2564781,-5.665294251,P(HO)3
mp-505228,0,-3.301093356,5.077890823,0,-439.929083,-8.146834871,Sr5Nb5O17
mp-767321,0.3313,-0.996074489,2.661734485,0.087235276,-78.99231489,-3.590559768,Li7(SbS)2
mp-780561,2.869,-2.943378693,6.094260355,0,-558.070696,-6.975883701,La3Ga5O12
mp-23939,4.1525,-0.925114988,1.834767366,0.119715814,-74.53105463,-4.658190914,H2O2
mp-775165,0,-1.859380502,4.331632568,0.022695097,-360.7723338,-6.442363104,Li2Mn3CuO8
mp-23040,1.7152,-1.413401628,3.280645766,0,-16.58704969,-4.146762423,Ca2PI
mp-1019576,1.4498,-1.2350406,2.978551238,0,-225.439002,-6.262194499,Ca4SiN4
mp-18822,2.8032,-2.677291765,3.724694657,0,-240.4445504,-7.513892198,Mn2PO4F
mp-2529,0,-0.639786002,10.06742888,0,-42.7938306,-7.1323051,PrRh2
mp-567878,4.1001,-1.113959089,3.986865143,0,-77.25946402,-3.219144334,AlTlBr4
mp-15704,3.5623,-1.413947877,3.192854007,0.001184797,-61.43110712,-7.67888839,BeSiN2
mp-21117,0,-0.060857393,7.719302961,0.020711055,-35.77579092,-5.96263182,FeGe2
mp-776911,3.4257,-2.977213968,2.725790889,0.091431721,-47.14071235,-5.892589044,MgO
mp-24421,5.1688,-1.384552805,3.073992541,0.011859871,-114.2226179,-4.759275744,BaH2Cl2O7
mp-3153,3.0509,-2.172429352,4.053122897,0,-406.3535888,-6.156872557,Na4Ge9O20
mp-583084,2.2822,-1.471973589,3.297873211,0,-528.3720731,-5.080500703,Rb3Er3(PS4)4
mp-979254,0,0.293670923,6.596364086,0.293670923,-16.70295237,-4.175738093,SnGe3
mp-19897,0,-2.642944384,6.940159767,0,-45.39122995,-9.07824599,Eu2TeO2
mp-20185,0.2161,-0.890977963,9.626705332,0,-17.10440541,-5.70146847,LuNiSb
mp-561480,4.6108,-2.488360845,3.91157699,0,-86.62445052,-4.331222526,NaNiF3
mp-28378,0,-0.688083945,8.597550804,0,-192.1021727,-8.004257197,HfFeSi2
mp-23852,4.6115,-1.790084284,2.063560366,0.001877889,-209.3953474,-5.816537427,Na3H5(CO4)2
mp-644222,2.4635,-1.46143821,4.349864259,0,-30.96098005,-3.870122506,CdHClO
mp-20633,0,-1.317931517,9.19477498,0,-64.43238745,-5.369365621,PbO2
mp-568560,2.3494,-0.885557505,6.055753044,0,-5.76707896,-2.88353948,TlBr
mp-20751,0,-0.412547359,8.935201882,0,-35.44372682,-7.088745364,Pu(CuSi)2
mp-4337,0,-0.887867226,9.569765874,0,-32.98414828,-6.596829656,Dy(GeRh)2
mp-12553,0,-0.440082146,4.273984934,0,-35.57663916,-4.447079895,PrAl3