id,band_gap,formation_energy_per_atom,density,e_above_hull,energy,energy_per_atom,pretty_formula
mp-29030,3.2158000000000007,-3.165043436439092,7.873751393470028,0.0,-237.03258299,-5.387104158863636,ThTl3F7
mp-763309,,,,,,,
mp-703316,2.5942,-0.44424784620066654,3.3489576627293114,0.0,-141.00173612,-3.525043403,LaMg2H7
mp-779229,,,,,,,
mp-559730,2.9729,-1.6559004257045458,5.374215133312701,0.00044491562500237336,-475.46968150000004,-5.4030645625,KGa(Te3O7)2
mp-699543,2.3333,-1.8510938325174189,3.76107990192063,0.0,-188.38453576,-6.076920508387097,Na2Co5Mo4(ClO4)4
mp-18721,3.2709000000000006,-2.594137014738473,3.5896608364061877,0.0,-168.08689961,-7.6403136186363625,Mn2P2O7
mp-767709,2.5799,-2.409042982371049,3.3496021899093056,0.3509946210648147,-256.70002999999997,-7.1305563888888885,Li2Mn3Si3O10
mp-773554,,,,,,,
mp-765933,,,,,,,
mp-7589,2.1244999999999994,-2.0093017650591665,2.98988671700256,0.0010824204687507333,-41.20804243,-5.15100530375,Mg2NF
mp-764216,,,,,,,
mp-733729,3.3692,-2.3269296388546032,4.004527873849851,0.0,-436.44747535,-6.061770490972222,RbInPHO5
mp-7104,6.877000000000001,-3.7414078823002064,3.9700850724336574,0.0,-25.86355492,-5.172710984,CsCaF3
mp-9086,2.1617000000000006,-2.1486771835452587,5.0701481412853155,0.002480611250000209,-21.04287768,-5.26071942,CsDyS2
mp-4851,3.0685,-2.648212465059524,4.629144577561825,0.0,-346.12648179,-6.180830031964287,Sr(GaO2)2
mp-777699,,,,,,,
mp-763229,0.9369999999999998,-2.807092872063334,4.131131249761825,0.0478486687499986,-171.90280311,-7.16261679625,VOF
mp-556031,3.6367,-2.370136333262987,3.7149167501458495,0.012254945454546196,-149.20463926,-6.7820290572727275,Sn2P2O7
mp-27739,4.0652,-1.7941229363461535,2.9349260127704127,0.0,-311.19033298,-5.984429480384616,As2S2O9
mp-754444,0.2502,-0.7018554723809517,5.854386364229093,0.08847876946428722,-57.640337800000005,-4.117166985714285,Zn(AgO2)2
mp-767743,,,,,,,
mp-542975,,,,,,,
mp-707485,0.5323,-1.6893335684220687,3.5345127866215287,0.0,-317.54808469,-5.474966977413793,K4Cu3As4(HO8)2
mp-868169,,,,,,,
mp-570538,3.9425,-0.3912774855349994,1.793322194384847,0.00014426500000386255,-26.73474951,-6.6836873775,NaN3
mp-6245,3.4222,-2.8840037380086367,3.4257696065368104,0.0,-323.54766578,-7.353356040454545,K5Nb4O12F
mp-643573,1.6702,-0.3400336518177424,2.3047557844843576,0.0,-80.74184204,-3.670083729090909,Mg3MnH7
mp-760370,2.9851,-2.341236197935263,8.444710688799514,0.019506788552634543,-401.57885782,-5.283932339736842,Bi6O5F8
mp-1020616,4.4904,-2.9055834755102032,2.963174731394527,0.00822554583333357,-543.74954465,-6.473208864880951,RbMgPO4
mp-625154,1.6164,-1.2172654420973334,4.254487292192932,0.08107278200000323,-151.44355089,-5.048118363,H8PtO6
mp-779360,1.5023999999999995,-2.8163435762300004,4.0981396568629815,0.03859796458333253,-172.12482001,-7.171867500416668,VOF
mp-775935,3.8575,-3.7369786075,4.410951952884432,0.0868324341666682,-84.74990217,-9.416655796666667,ZrO2
mp-676290,1.3710999999999998,-0.7740906664150001,2.8716388859707256,0.2646572949999997,-10.0155326,-3.3385108666666667,RbHS
mp-776692,3.0811,-2.8598475994996675,3.386589581608451,0.0,-207.69537546,-5.192384386500001,LiFe2F7
mp-28198,2.5376000000000003,-0.8908496056944443,3.705752779029544,0.0,-91.04011018,-2.5288919494444446,RbInI4
mp-767861,,,,,,,
mp-556592,2.0452000000000004,-0.7387670320892858,4.306583003953125,0.0,-90.60050109,-4.530025054499999,TlBi(PS3)2
mp-6674,3.8734,-3.0686459784166678,6.270384946011496,0.00313471949999844,-144.14077849,-7.207038924500001,LiLa2SbO6
mp-29789,5.7305,-1.0992527559237493,3.3140330202941506,0.0,-153.63706634,-4.801158323125,Lu(ClO4)3
mp-505357,1.4358,-0.53810008890625,4.378034710219692,0.0,-150.17447263,-3.128634846458333,InSeI
mp-769049,3.7851,-2.813634228757143,3.618810273170744,0.08308967928571588,-131.27868968,-4.688524631428573,BaLaCl5
mp-541738,1.0526000000000002,-0.9139515166995068,4.353178985513131,0.014398184999998788,-97.00740975,-3.464550348214285,Cs3Cr2I9
mp-764415,0.5150000000000001,-1.8562892181294144,3.5100731290460816,0.4836908264352146,-476.21008116,-6.6140289050000005,MnFeCo(PO4)3
mp-768041,1.9105,-2.59305541077027,3.2952729358739177,2.9692777635494565,-200.22603259,-7.150929735357143,Li4MnCr3(PO4)4
mp-774077,,,,,,,
mp-554649,2.4077,-2.551448861214,3.1597540839264826,0.0,-83.18056046,-4.1590280229999985,Na3NiF6
mp-1853,1.8229,-0.4661088682352946,2.8230984144647517,0.0,-177.55659316,-5.22225274,Sr3P14
mp-774306,0.6754,-2.3649253233110117,3.2558539401325937,2.8888470578125016,-220.43994446,-6.888748264375,LiCrPO5
mp-707105,5.8870999999999984,-2.5993916418203336,2.2337963631538287,0.00014825812499896784,-560.19073046,-7.00238413075,Li3B5(HO5)2
mp-780874,1.0259999999999998,-1.920246894729298,3.3144657933727517,0.07990555138887599,-108.30968244,-6.0172045800000005,KLi2Mn2O4
mp-755856,2.6409,-2.6128390230952383,4.921861166267642,0.07092244428571437,-84.9172437,-6.065517407142857,Mg2SnO4
mp-761090,2.7882,-1.6957340685714288,4.135551595454458,0.03558423839285574,-259.44176225,-4.632888611607143,Na3BiO3
mp-558977,0.8792999999999997,-2.544994039208333,5.638369574207753,0.0,-391.76846042,-6.5294743403333335,LaErS3
mp-31842,,,,,,,
mp-1020707,4.0844,-2.6564046738802087,3.1363604304911292,0.0,-456.03842537,-7.12560039640625,Rb2GeB4O9
mp-998427,0.3725999999999998,-1.63726377790625,5.443771235602749,0.0,-116.56289913,-5.8281449565,BaZrSe3
mp-696485,3.4407,-2.2219439870434616,3.2992769917502986,0.01648417728205409,-267.42289218,-5.142747926538462,Na2TeHSO5F3
mp-761371,,,,,,,
mp-767604,3.2491000000000003,-2.888514048804347,4.505355948722468,0.0027426502174137113,-543.21022446,-7.872611948695653,Li12Nb14ZnO42
mp-4138,3.2778,-2.0927320397916667,3.3089643116358856,0.0,-145.92490644,-6.080204435,Rb2CO3
mp-772787,3.297,-3.1543395302913533,3.8814613671303904,0.0,-329.86298019,-8.680604741842105,Gd2P4O13
mp-23496,2.2789,-0.7088397407662835,4.675123402996985,0.0001402868750002284,-61.5421045,-2.5642543541666667,CsAg2I3
mp-767318,,,,,,,
mp-23207,0.9640000000000001,-0.5612862052533334,2.040171449407639,0.0,-91.43232424,-3.809680176666667,ClO2
mp-626295,3.5473,-1.4556751753859256,2.097619356047943,0.03838645574078203,-271.02928367,-5.019060808703704,Ba(H8O5)2
mp-770506,1.4457999999999998,-2.378959000305556,3.304643934170855,0.21754179800002227,-235.15309143,-7.838436380999999,V5BO9
mp-606691,2.3917,-3.0990785315607137,4.338641066296669,0.0,-645.41585498,-8.067698187249999,KU2P3O14
mp-555700,5.484,-3.2694268181249995,1.807503464462716,0.008570851041666216,-379.56803275,-7.9076673489583325,SiO2
mp-863885,,,,,,,
mp-568192,,,,,,,
mp-764155,,,,,,,
mp-11605,1.0006,-1.9919213488125005,4.907196948698662,0.0,-88.61133615,-5.538208509375,KTb2CuS4
mp-3879,0.8405,-3.4125378524600003,5.204328369674384,0.0,-94.34657961,-5.2414766450000005,Ba2CuF6
mp-851032,,,,,,,
mp-540611,5.4491,-2.92687276343254,3.470471704327034,0.0068931468518451675,-524.13406438,-7.279639783055557,RbNd(PO3)4
mp-762045,,,,,,,
mp-540760,1.4434,-1.1888585354651433,1.929660853815376,0.0,-143.20790428,-3.5801976069999997,FePCl8
mp-773931,,,,,,,
mp-762708,,,,,,,
mp-27018,2.4403000000000006,-2.3665545149702383,3.784218904468319,0.05538830027777486,-324.70055845,-6.764594967708334,SnPO4
mp-764656,,,,,,,
mp-3378,4.1716,-3.822132465083334,7.508740708806549,0.0,-173.97729902,-8.698864951000001,SrHfO3
mp-562764,2.5247,-1.84611762078993,3.6701641059429377,0.0,-259.21209909,-5.400252064375,Ba7B4S13
mp-761289,,,,,,,
mp-9636,5.0883,-2.9474303787588787,3.8464537934362415,0.0,-37.12714579,-4.64089322375,CsSbF6
mp-744801,2.676,-1.6017941085547909,1.896204111678471,0.006196510130185295,-1019.51990574,-5.3099995090625,RbVH24(SO10)2
mp-541240,3.7777,-2.4219252563449998,4.509059584460063,0.0,-208.8013317,-5.2200332925,Sb3O2F5
mp-540482,1.2408,-2.429537433869048,2.4032338962129445,2.2624784232310957,-153.64022419999998,-6.983646554545455,LiCrP2O7
mp-772199,0.6094999999999999,-1.5517756007353332,2.9902506553396138,0.041624506166666464,-97.19998000000001,-3.239999333333333,Rb3ClO
mp-31924,1.229,-2.457920825288609,3.144034529055386,0.11717099350000293,-307.89255302,-6.997558023181818,LiMnP2O7
mp-709350,3.2627,-2.4758367600673563,4.167470251171596,0.0,-732.80371083,-6.3172733692241385,Sr5As5HO18
mp-12011,2.4464,-1.6326299007857148,3.5775320171631533,0.0,-71.3652909,-5.097520778571429,KTbGeS4
mp-560608,1.8331000000000004,-2.558294805600001,5.501302867992959,0.0023661025499954746,-658.02530338,-6.5802530338,Nd10S14O
mp-642991,4.0308,-1.7969369702584628,3.862910978623792,0.07661214572115327,-90.86805897,-6.989850690000001,TbH3(CO2)3
mp-776645,,,,,,,
mp-763733,,,,,,,
mp-554543,5.4402,-3.2649538008333336,1.7788437551726817,0.013043868333332044,-189.67666396,-7.9031943316666675,SiO2
mp-779363,0.9161,-2.90601351964625,3.6148618269245962,0.036227145098958864,-193.85624627,-6.0580076959375,Cr4OF11
mp-23091,1.7763,-2.4624061802499995,7.168423124689407,0.0001367309999977806,-61.95141224,-6.1951412239999994,Ba2BiSbO6
mp-756272,4.3645,-3.91121126375,7.431678327969542,0.039868739624999705,-167.34338668,-8.367169334,LaDyO3
mp-18352,3.8435,-2.156374027708333,5.988797841090863,0.0,-316.91559857,-6.602408303541666,HfTe3O8
mp-723426,5.129099999999998,-1.9633885031940688,1.9056647519872298,0.02932725585227214,-753.70087578,-5.709855119545455,NaLiP2(H4O5)2
mp-769721,,,,,,,
mp-763348,,,,,,,
mp-555965,1.9427,-2.1513209305952383,5.659859018806585,0.0,-486.82804818,-5.795572002142857,Li2ZnSn3O8
mp-571621,3.3905000000000003,-0.8759027550905877,3.74922514082458,0.0013221924999973214,-495.19424847,-7.282268359852941,Ba3Na2(CN2)4
mp-765115,,,,,,,
mp-22913,0.4859,-0.25016798500000004,5.1476617941267016,0.0,-6.23646918,-3.11823459,CuBr
mp-779904,2.8499,-0.7974185488888897,4.978287401983526,0.12567654277777685,-157.25839873,-4.368288853611111,Ni(IO3)2
mp-676077,1.9558,-3.832024436875,6.674405140053851,0.053492827678565995,-119.19488522,-8.513920372857143,Ce3Nd2O9
mp-531132,4.9795,-3.333492148846154,2.9786603043516866,0.003330613562273044,-658.87977129,-7.240437047142858,Ca3(PO4)2
mp-1019522,5.6734,-2.9998057034339087,3.3356811532417163,0.0021500773491354157,-459.60505289,-7.924225049827586,Ba2B10O17
mp-754628,0.8351,-0.4632625515866653,4.8898896718295815,0.0875108271033298,-121.01143400000001,-10.084286166666667,WN2
mp-767449,,,,,,,
mp-767813,,,,,,,
mp-766772,,,,,,,
mp-607806,1.5215,-1.9078219192016077,7.279699110227286,0.0,-182.16874666,-6.506026666428572,Ho3Se3N
mp-775354,,,,,,,
mp-554873,3.2653,-2.520199625634058,3.214844554935937,0.0,-689.03370292,-7.489496770869565,Ag2B8O13
mp-17885,0.6347999999999998,-0.8537397519444446,5.454702281081504,0.0,-145.89250935,-4.052569704166667,Ba2Ge2Te5
mp-765869,,,,,,,
mp-546790,1.196699999999999,-2.0757957790625,6.999247975872483,0.00835556812500027,-49.45472658,-6.1818408225,LaCuTeO
mp-605461,1.6805,-1.7663552362491657,2.5579752823800725,0.07876728691269719,-799.21858462,-6.660154871833331,K3UH6C5SNO13
mp-23009,2.4258,-1.5109138355949998,3.471369649637397,0.0,-19.63197954,-4.907994885,Ca2BrN
mp-972590,,,,,,,
mp-540495,,,,,,,
mp-9008,1.1079999999999999,-0.6833879641666668,5.8370937681809645,0.0,-18.89576087,-3.149293478333333,RbTeAu
mp-24348,4.961200000000002,-2.4303774251614274,3.6101559413028284,0.0,-246.94815153,-6.8596708758333325,BiP4HO12
mp-772700,,,,,,,
mp-721901,5.2017,-2.1169690795817324,1.894339328643271,0.0,-617.93120359,-6.179312035900001,K2B4H8O11
mp-16884,1.1586,-1.10886315765625,6.557332762165393,0.0,-104.18011161,-4.735459618636363,RbEr2Cu3Se5
mp-560882,3.4204,-1.154152204947917,3.8182788288083054,0.010185507499999248,-61.79879612,-5.149899676666666,SeO2
mp-675300,2.862,-3.78583160534091,7.214313478111863,0.15749725374999812,-195.24804988,-8.87491135818182,Ho2Zr2O7
mp-22896,3.646,-2.8527471474449997,3.7187628737306864,0.0,-40.21709725,-5.02713715625,LaCl3
mp-5769,3.0469000000000004,-2.22136552375,4.3476737714662566,0.0,-89.21870842,-5.57616927625,Li3SbO4
mp-23651,3.4006,-2.5599402536956517,2.9453623428279188,0.0,-283.37754985,-6.16038151847826,Na4Al3Ge3IO12
mp-770611,3.2894,-1.7470514523417333,2.4054221063735928,0.06030346320000124,-273.08061692,-5.4616123384,Li2CoH8(SO6)2
mp-23522,4.5948,-2.2486076084233333,3.205310168392629,0.006617722083333444,-86.74192397,-3.614246832083333,BaZnCl4
mp-764517,,,,,,,
mp-31882,,,,,,,
mp-778564,,,,,,,
mp-867154,2.631,-0.4722914474540041,2.444847258144317,0.007666680596591036,-97.71497846,-4.44158993,BP4(SBr)3
mp-558111,3.3104,-2.923018288083908,3.4198086914676726,0.0,-44.27238986,-4.919154428888889,Rb2MnF6
mp-10378,0.6214,-0.3040115771982759,4.228331972918011,0.0,-8.03125301,-2.0078132525,Cs3Sb
mp-703539,3.2973,-0.3567463338687992,2.66732822959788,0.0,-494.84493396,-4.9484493396,AgB11H6CBr6
mp-23451,1.3066,-1.2845969881280792,3.976185263841885,0.0,-109.41799750000001,-3.907785625,Cs3Cr2Br9
mp-11670,2.734,-1.4533325692302554,4.516923970217362,0.0,-209.27847364,-8.049172063076924,BaYSi4N7
mp-761674,,,,,,,
mp-22605,0.33309999999999995,-0.2187196520535711,5.492168178952729,0.3372604207142853,-71.45396239,-5.103854456428572,Cr2CdSe4
mp-541878,2.3158000000000003,-1.1355899640694445,2.4259008530503032,0.0,-156.16432066,-4.337897796111111,K2Ge2S5
mp-12779,0.6198000000000001,-0.4606972275000003,5.466196552532813,0.0030170724999996072,-9.94179633,-2.4854490825,CdTe
mp-771428,,,,,,,
mp-760758,2.1749,-1.7771132576487494,8.308174014586655,0.09257013562500303,-88.55873442,-5.53492090125,Bi3O4F
mp-772925,3.0153,-3.1920542746031746,3.286129927701788,0.02646357357144602,-330.18416201,-7.861527666904763,Li4Ti5O12
mp-863887,,,,,,,
mp-24461,2.3892,-0.7867492993804546,2.6004393296981085,0.0198783501949098,-115.18223831,-5.2355562868181815,H12OsN5Cl3O
mp-570930,0.4275000000000002,-0.4583831090798611,7.619754404939821,0.006797305555556577,-36.80301723,-4.089224136666667,Bi2Pb2Se5
mp-29576,1.0750000000000002,-0.07847330180672303,4.7735350976692414,0.03376396022058792,-123.62064841,-3.6359014238235297,Cd7P10
mp-560625,3.3783000000000003,-1.9860850197514293,6.2369371847491175,0.010728294642857072,-96.59244945,-6.899460675,RePbClO4
mp-776711,,,,,,,
mp-25561,,,,,,,
mp-556001,4.9784,-2.9493017039192853,2.473273948278879,0.0,-798.53673681,-7.129792292946428,NaBeSi3HO8
mp-382,0.2789999999999999,-1.3398039614285722,9.37955697852715,0.0,-100.50846944,-7.179176388571428,Th3As4
mp-770894,2.2453,-2.561412802427196,3.0932530485963388,2.4716038923611108,-466.61685015,-6.480789585416668,Li2CrPO4F
mp-10950,0.2246999999999999,-2.894014558498168,3.715036589351135,0.0,-89.89225391,-6.914788762307693,Sr2Cu(PO4)2
mp-764493,,,,,,,
mp-555201,,,,,,,
mp-570921,0.9451999999999998,-1.8990744785235008,3.72220163584892,0.0,-275.93887431,-5.306516813653847,CsLu(NbCl3)6
mp-762252,,,,,,,
mp-776230,,,,,,,
mp-695866,6.2707,-1.5931067247319997,1.555145214951051,0.0665326899166585,-300.56420775,-5.0094034625,BeH8(NF2)2
mp-989522,0.2260999999999997,-0.4947943150951428,4.945785901542594,0.0,-35.66790946,-3.5667909460000002,Mg6Bi2PN
mp-11653,6.9876,-2.7358329808730164,2.9256140228175913,0.03900241111110958,-136.47100879,-7.5817227105555585,BPO4
mp-5972,0.2524,-1.8752065917351293,5.002743400053342,0.028451110416665593,-66.70555931,-4.169097456875,CsPd2F5
mp-8128,3.3344,-3.002903188125,5.241534919896741,0.0,-53.16661981,-6.64582747625,NaNdO2
mp-555999,0.2242999999999995,-1.2084878363970588,5.582209785926956,0.1096653382647066,-181.07218957,-5.325652634411765,Np(IO3)4
mp-28299,2.1387,-2.1761300615937507,4.5661819645405854,0.0,-279.05676745,-6.97641918625,USe2O7
mp-25766,,,,,,,
mp-769481,3.54,-3.4197362398055557,4.926164482768083,0.020680135383331688,-485.71004513,-8.095167418833334,Y4Ga2O9
mp-765329,,,,,,,
mp-762389,,,,,,,
mp-8184,3.1087,-2.2339786222916667,3.9490869643804216,0.0,-89.09861759,-5.568663599375,Li2ZnGeO4
mp-687090,3.2776,-2.590728968636362,4.5362772841971815,0.0,-522.29878473,-7.913617950454545,Hf(MoO4)2
mp-762988,3.5933,-1.617989328170368,3.1351993130808777,1.4493723750000012,-86.96550486,-4.348275243,LiMnF3
mp-23408,1.0173,-0.7092139550568177,7.225972897978037,0.0,-169.54298912,-3.853249752727272,Tl4Bi2S5
mp-23033,1.9398000000000004,-1.6660128522433328,3.9559786248747875,0.0,-19.24933708,-4.81233427,Sr2NCl
mp-780087,1.1633,-2.5985777524688336,3.798080781064991,0.07560624247354042,-199.94350388,-7.140839424285715,LiMnSiO4
mp-769446,,,,,,,
mp-772886,3.9737,-2.82291241328,2.699858009261912,0.05781994545454783,-105.7476588,-4.806711763636363,BaLa2Cl8
mp-541545,,,,,,,
mp-32689,1.4259999999999995,-1.88571093515625,6.289310388434017,0.0,-235.82469919,-5.895617479749999,Pr2Se3
mp-989604,1.8386000000000005,-1.116206443594666,4.819004615802184,0.0,-187.00063431,-9.3500317155,YMoN3
mp-764238,,,,,,,
mp-542158,1.9991,-1.5902870762276793,4.199603336713259,0.5149053602083384,-194.86411462,-6.089503581875,FeNiPO5
mp-25697,,,,,,,
mp-764985,0.2507999999999999,-1.7906003777192985,4.576343127143842,0.017535048503291684,-222.07662224,-5.844121637894737,Li8Fe3Co7O20
mp-510459,1.0502000000000002,-1.9356753522307373,4.579780320479016,0.033623933214281365,-99.02561700000001,-7.0732583571428576,MnVCuO4
mp-853194,,,,,,,
mp-754500,2.8496999999999995,-2.3032745414158597,3.4454364140633063,0.06064961711537365,-169.08165182,-6.503140454615385,LiSn2P4H3O16
mp-774390,0.8643000000000001,-1.78756630244546,4.468556783169066,0.0967237659374991,-327.95075169,-6.832307326875,Mn3SbO8
mp-36086,1.0370999999999997,-2.657516201875,3.9518114524767114,0.0672159037500002,-54.07086509,-6.75885813625,Li3NbO4
mp-773189,,,,,,,
mp-850183,,,,,,,
mp-722245,2.3718000000000004,-0.8334401832272728,1.6973858322392976,0.09065796275641258,-253.67296980000003,-5.7652947681818185,K2H2C2S2N2O
mp-552200,2.7128,-2.94671751375,7.706379001097392,0.014343447999998203,-74.52330327,-7.452330327,Ba2TaBiO6
mp-568949,2.1998,-0.8616394174999997,6.582511745104099,0.02258256750000021,-11.44371659,-2.8609291475,TlBr
mp-667292,4.4841000000000015,-3.1315014718416667,2.3625212099019945,0.0,-1156.10129718,-7.225633107375001,K2MgSi5O12
mp-641500,,,,,,,
mp-769428,,,,,,,
mp-560042,1.4827,-1.5755350892729163,2.4940374945020407,0.050130041193871655,-233.64857564,-4.867678659166667,AsS3(NF3)2
mp-773463,0.9381,-2.10387629236012,2.647560314891628,0.05962985243055562,-154.12269032,-6.421778763333332,K2CoPCO7
mp-753459,1.5115999999999998,-3.0676980095400017,4.883744138803545,0.02759361071429112,-95.18880164,-8.65352742181818,Nb3O7F
mp-24170,6.0672000000000015,-2.2319938054923805,2.325470913213941,0.00026045428570942164,-216.81025882,-6.022507189444443,CaPH3O4
mp-11115,0.9808999999999996,-0.4280935555273437,5.030435467606376,0.0,-62.32106703,-3.895066689375,RbCuPdSe5
mp-675345,1.4486999999999997,-0.8836016004307149,6.246669723521474,0.06376379392856979,-225.60798575,-4.02871403125,Bi5(S2Cl)3
mp-6600,4.8135,-3.233524871483332,2.9771924777827268,0.0,-227.50506556,-7.583502185333332,K2Zr(SiO3)3
mp-764802,,,,,,,
mp-770558,1.2825,-2.281846575900804,3.136402440991955,0.1141477280000016,-283.38220833,-7.08455520825,MnP2O7
mp-505825,1.3752999999999995,-0.0590376771724138,5.334606673173984,0.0,-26.61044048,-5.322088096,Cs2PtC2
mp-697676,2.7918,-1.6998414486909992,6.6685135793081916,0.001275480444441257,-168.53153374,-5.617717791333333,H2Pb4SO8
mp-774072,,,,,,,
mp-764419,,,,,,,
mp-8110,5.830899999999999,-3.1275198774166664,3.4972163701289807,0.030466282000020332,-77.59912453,-7.759912452999999,AlBO3
mp-1253,1.9607,-2.0475837711718747,4.805293948464448,0.0,-9.51004985,-4.755024925,BaSe
mp-779933,,,,,,,
mp-643066,4.2653,-1.809597399068333,3.2237987476072743,0.0,-97.45325546,-5.414069747777778,ZnH2SO5
mp-25494,,,,,,,
mp-540434,,,,,,,
mp-759071,4.3073,-2.470060160608466,2.973249603440939,0.06215158111111663,-246.2002688,-6.838896355555557,LiSb(PO3)4
mp-2286,2.9974000000000003,-1.2604582752256943,2.826922317193111,0.0,-11.09513201,-3.698377336666667,Li2Se
mp-5273,1.2794000000000003,-1.4135187269999996,4.659038713295279,0.0,-17.83197486,-4.457993715,KPrTe2
mp-849509,2.7213,-2.3347865247883064,3.0821365688333704,0.4359200327366271,-448.38222776,-6.2275309411111115,Li2VPO4F
mp-765760,,,,,,,
mp-765491,,,,,,,