id,band_gap,formation_energy_per_atom,density,e_above_hull,energy,energy_per_atom,pretty_formula
mp-759759,4.1916,-2.222664746,3.682594864,0.00822498,-535.2981981,-6.08293407,NaGa3P2(HO3)4
mp-977376,0,-0.672800399,12.82821316,0,-14.7806439,-3.695160975,TbCdAu2
mp-764589,1.7517,-2.366836636,3.22223572,0.052968188,-312.4495269,-7.101125611,LiFe2(BO3)2
mp-558099,1.6746,-0.988768996,5.419226521,0.011594831,-80.35521127,-4.017760563,Nb2Tl5S4Br9
mp-28069,1.8384,-2.258191507,2.586208332,0,-30.22361961,-4.317659944,Ca3AsCl3
mp-642651,0,-0.584017641,10.12835862,0,-218.4115067,-6.066986296,Yb2Ge4Ru3
mp-622576,0,-2.240877115,6.360944194,0,-73.11242977,-6.092702481,Ba2Sm(CuO2)3
mp-755511,1.6861,-2.4076186,6.973382835,0.098210127,-112.6855851,-6.260310284,Y2Hg2O5
mp-980193,0,-0.455640861,5.997987621,0.087647356,-37.12082933,-5.302975619,Ti2H4Pd
mp-772533,0,-2.271083748,2.564448128,0.093522617,-362.8833788,-6.480060336,FePO4F
mp-18084,3.0506,-3.269857628,7.693085637,0.012635671,-252.0525779,-7.001460497,BaTb2ZnO5
mp-12904,0.9108,-0.909467237,7.37099121,0,-34.65886913,-4.332358641,HoAgTe2
mp-569416,0.8126,0.028800844,1.583138869,0.028800844,-73.5733819,-9.196672738,C
mp-568293,1.3008,-0.912055713,2.775764385,0.032274913,-105.8884293,-5.294421465,Ca3N2
mp-2802,0,-0.83241484,13.5954944,0,-20.88507661,-10.44253831,HfRu
mp-752856,0,-1.159957391,2.445660743,0.150770164,-221.5556736,-4.816427686,Li10Fe4S9
mp-740731,4.6404,-1.614838153,2.318204932,0.067594292,-343.8251866,-5.37226854,Al2H12(SeO5)3
mp-978084,0,-0.503431982,7.039163021,0.001677226,-60.49657064,-6.049657064,PrVGe3
mp-372,0,-0.44452024,17.47473117,0.01315118,-29.027773,-7.25694325,VPt3
mp-770950,1.7101,-3.366253948,6.523084623,0.035953131,-220.0632294,-7.859401049,LiLa4MnO8
mp-643898,5.7013,-2.627448446,2.418835278,0,-160.831289,-6.701303709,CaP2H2O7
mp-510751,0.0138,-0.774119951,5.055299974,0.180551746,-157.9831578,-4.936973681,CuO
mp-777760,0,-3.565033815,7.352402102,0.079341735,-195.4306063,-8.142941929,TbCeO4
mp-567858,0,-1.130820964,6.137030119,0.004482668,-352.0418182,-5.029168832,Dy12C6I17
mp-16804,5.1801,-3.124483116,2.764439666,0.003858521,-288.5826262,-6.87101491,LiCaPO4
mp-541626,2.3239,-2.644799835,4.069450454,0.03386141,-306.8002138,-7.304766996,K3Nb3Ge2O13
mp-774364,2.5126,-2.51877443,2.930592312,0.068838228,-395.828421,-7.068364661,LiCrPO4
mp-773454,1.4066,-1.915088571,2.768172414,0.056362722,-203.3296162,-5.083240406,Li5CoO4
mp-567486,4.1542,-1.085142057,4.222950413,0,-623.8764637,-7.427100758,BaSr2(PN2)6
mp-504802,4.3729,-1.571500129,1.707706689,0.018626363,-492.6550072,-5.131822991,MgH12S2O9
mp-623088,0.0026,-3.491002963,4.523701125,0.0097805,-223.6654225,-5.325367203,KTbF5
mp-697925,0,-2.031464569,2.671346659,0,-348.2650142,-6.21901811,Na5YbH4(C2O7)2
mp-30859,0,-1.002987781,13.04108453,0.080278586,-163.6125712,-8.180628558,Zr9Pt11
mp-626062,1.9999,-3.14642689,6.608699683,0.04056598,-129.8202173,-8.654681151,U3(HO5)2
mp-773182,0,-2.216173644,5.23157959,0.027733175,-180.2254945,-6.436624804,Li4Cr3Sn5O16
mp-27687,1.656,-0.158317795,2.157539593,0,-328.3446036,-5.130384431,LiP7
mp-7002,0,-2.799523542,3.89251959,0.008460469,-28.88645343,-7.221613358,NaTiO2
mp-756686,2.6071,-2.758971434,5.268750605,0.107923339,-133.0114983,-6.650574915,AlGaO3
mp-608655,0,-0.276168493,6.770096024,0.066117232,-468.6404806,-8.368580011,Mn5Si2
mp-772049,3.7604,-3.13811667,2.528230929,0.035808995,-275.941304,-7.665036221,Li2Ti2O5
mp-554856,4.4186,-2.897856854,2.652564225,0.021035499,-242.9609001,-6.748913891,Na2Si2O5
mp-29337,1.3684,-0.707566113,6.199362149,0,-58.25118501,-4.160798929,Tl3BS3
mp-28242,1.8016,-1.096954504,6.579523925,0.011657746,-69.49603401,-3.158910637,Tl6SCl4
mp-989548,3.6388,-2.726312699,4.671180101,0,-41.52484343,-4.152484343,Rb2NaTlF6
mp-1607,0,-0.228745918,9.333349087,0,-23.39777472,-3.89962912,YbCu5
mp-756467,0,-2.592675513,3.339786883,0.05359889,-263.218308,-7.311619667,TiCu(PO4)2
mp-20742,0.3783,-0.921335739,5.189887259,0,-123.1024101,-6.155120507,EuPSe3
mp-9223,0,-0.795786667,7.36433942,0,-67.82598714,-7.536220793,ScGeRu
mp-8250,0,-0.996775302,6.853477437,0,-32.2865697,-6.45731394,La(NiP)2
mp-1234,0,-0.483597387,6.502482434,0,-26.94573468,-4.49095578,LuAl2
mp-555515,0,-0.815690501,7.312670952,0.00603193,-107.4063577,-4.475264905,CuAg4TeO6
mp-37381,5.4437,-4.167018082,7.129063577,0.056111982,-22.86436868,-7.621456227,SmOF
mp-1368,0,-0.100811504,8.02303262,0,-63.979251,-2.460740423,Zn8Cu5
mp-745166,3.5417,-3.075581704,3.765354331,0,-368.0721891,-5.41282631,Sr2Fe2H2OF10
mp-505727,1.964,-0.526944968,1.620915247,0,-60.05429304,-5.00452442,NClO
mp-757747,2.8045,-2.295069772,4.093538254,0.081852094,-523.1732929,-6.539666161,LiSn4(PO4)3
mp-631515,0,0.92458446,5.936866604,1.096094904,-10.45559605,-3.485198683,CaHfZn
mp-19123,3.9675,-2.373316824,3.388813122,0,-94.46087657,-5.903804786,Rb2LiVO4
mp-13827,6.0657,-3.107244783,3.336487304,0.040646975,-648.1886668,-7.716531747,Ca(BO2)2
mp-765781,1.7843,-3.046048253,3.035411343,0.068258626,-75.46053286,-5.390038061,LiVF5
mp-560323,3.4288,-1.320170172,1.578345131,0.053606673,-314.1600923,-6.041540237,H11C4NO10
mp-1009733,0.5848,-0.445228858,1.949225222,0.015837062,-10.76559333,-3.58853111,Ca2Si
mp-707055,3.0947,-1.411380755,1.915264451,0.007617422,-932.5061658,-4.856802947,Na2GeH12S2O7
mp-12598,0,-0.801868779,16.02453564,0.061183462,-26.16164327,-6.540410818,PrPt3
mp-672645,0,-0.976468197,6.784636376,0,-94.39514812,-7.866262343,TiSiRh
mp-560105,3.7626,-3.14076514,3.151387906,0.000794317,-449.8999808,-7.029687201,K3Ho(SiO3)3
mp-23166,0.0079,-1.335410898,6.4576849,0.022853644,-46.33908725,-5.792385906,NpBr3
mp-769558,0,-1.9832691,3.037967389,0.012590895,-73.02850107,-7.302850107,LiMn(CO3)2
mp-722980,2.057,-0.859774241,5.736786459,0.002010052,-344.2080131,-4.780666849,Hg4HN3O10
mp-6356,1.0421,-0.90894989,4.546701276,0,-57.63616839,-3.602260524,Cd2GaAgS4
mp-614981,0,-2.226300695,6.262487951,0,-72.98625919,-6.082188266,Ba2Nd(CuO2)3
mp-5951,0,-0.269852063,8.508517854,0.034461375,-39.82571079,-6.637618465,CeMnNi4
mp-975591,0,0.284126486,9.670833932,0.284126486,-14.15107041,-7.075535205,NdHf
mp-23331,3.8981,-2.483201806,6.513029634,0,-259.5334957,-6.829828833,Si3(BiO3)4
mp-899,0,-0.415713692,10.59400876,0,-10.93022364,-5.46511182,InRh
mp-780301,0.1979,-2.807953733,4.207492493,0.081596456,-230.532057,-6.403668251,Mn6OF11
mp-322,0.736,-0.537004077,7.043525787,0.05039647,-27.62150344,-3.45268793,TlS
mp-667291,1.4154,-1.526089887,7.162983813,0,-185.5681326,-5.799004144,ReHg2O5
mp-999201,0,-0.199826194,4.444005725,0.352155334,-28.04894531,-7.012236328,Sc2MnSi
mp-768257,0.3471,-1.955166446,3.57850604,0.04156352,-347.8570919,-6.441797997,Na4Bi2C4SO16
mp-862372,0,-0.817615465,7.282056938,0,-32.54849301,-8.137123253,Sc2RuRh
mp-23911,5.2064,-1.508966905,1.683576421,0.00180714,-414.5047432,-5.314163375,MgH20S2(NO7)2
mp-10635,0,0.010187693,6.752743668,0.010187693,-8.11636828,-4.05818414,SnSb
mp-27747,0.9081,-0.251194412,5.456715494,0,-35.87937466,-2.989947888,PdI2
mp-6250,3.3223,-3.314593681,8.316579462,0.026319931,-252.4687844,-7.01302179,BaTm2ZnO5
mp-17977,0,-0.073993654,8.138862967,0.046830249,-126.0150713,-7.412651252,Fe12As5
mp-767740,2.3141,-2.646195174,2.903795797,0.025362529,-384.2594495,-7.389604798,V(PO3)3
mp-557420,4.8697,-2.967177111,2.972581979,0,-487.7605258,-7.621258216,KBaB5O9
mp-677638,4.7813,-2.811649531,2.74970979,0,-947.8040648,-6.628000453,Na27Ca3Al5(P2O7)12
mp-972022,0,-0.644787651,10.2664158,0.023267325,-20.15527189,-5.038817973,Tm2ZnRh
mp-680197,2.9337,-0.369488947,2.647524668,0.091663351,-385.4371847,-6.02245601,KAgC2(SN)2
mp-976181,6.588,-0.408709384,1.127622221,0.011242978,-23.42813107,-3.904688512,NaBH4
mp-721753,3.2366,-1.520059131,2.240597569,0.058912385,-272.3617876,-6.190040628,CsH7(C2O5)2
mp-23222,0.3607,-0.528195819,4.992100805,0,-11.73494616,-2.93373654,Li3Bi
mp-756281,5.7744,-3.796710995,7.909365191,0.019112641,-159.556328,-7.9778164,TmAlO3
mp-24831,3.726,-1.467680703,4.635196579,0.005043756,-192.9961375,-5.078845722,DyH4I3O11
mp-11352,0,-0.587921763,4.805038886,0,-39.78408442,-4.973010553,PrAl5Ni2
mp-861953,0,-0.602636823,8.787097064,0,-29.31235718,-7.328089295,AlFeRh2
mp-705541,0.8588,-1.754136221,4.947973784,0.24928393,-145.3383783,-7.649388333,V10O9
mp-631525,0,0.899516371,7.715346648,1.103154672,-4.79817633,-1.199544083,KHg2B
mp-22205,1.00E-04,-0.089772518,6.641890893,0,-21.76775112,-5.44193778,InN
mp-770839,3.011,-2.104841939,3.122287259,0,-74.38953421,-7.438953421,LiCr(CO3)2
mp-866301,2.3688,-1.306245491,3.565133133,0,-142.9274362,-5.104551293,BaBSbS4
mp-16627,0,-0.495972596,7.919970492,0,-91.98292795,-4.18104218,TmAl7Au3
mp-760679,0,-1.60957368,4.898083727,0.020532081,-76.22641158,-4.234800643,Cu3OF5
mp-771050,0.3578,-1.438366389,4.592339974,0.011541683,-152.47194,-4.918449677,Li7MgNi7O16
mp-705562,1.4836,-2.379083219,3.112965946,0.005209578,-472.6361096,-7.161153176,Mo4P5O24
mp-571642,5.5969,-2.790520621,2.160019309,0.001105513,-51.52623445,-4.293852871,CaCl2
mp-583278,0,-0.654434144,5.95642421,0.007553772,-495.6960022,-7.08137146,Cs3Mo15Se17
mp-11234,0,-0.12114801,5.256672834,0.092365954,-11.30561699,-2.826404248,PrMg2Ag
mp-17832,4.9959,-3.040687725,4.456014267,0,-186.1655813,-6.64877076,RbBaPO4
mp-16180,2.9764,-2.184561572,2.454951335,0,-90.13452967,-5.302031157,Na6S2O9
mp-556983,3.2033,-3.11451383,7.004010688,0.036947155,-144.8362996,-7.241814981,LaGaO3
mp-20327,0,-0.817349902,4.269096128,0,-84.67506302,-7.056255252,TiP2
mp-4001,0,-1.885238576,5.732943258,0,-67.19899858,-6.719899858,BaTaS3
mp-336,0,-0.089746933,9.308684886,0,-38.41115717,-6.401859528,SmCo2
mp-675741,0,-2.488230622,5.44922378,0.044787249,-183.1722349,-6.784156849,La10US16
mp-12661,0,0.020662988,7.737112043,0.020662988,-5.41340945,-1.353352363,Cd3In
mp-6951,3.1745,-2.717134179,4.635427,0,-19.77858812,-3.955717624,RbCdF3
mp-779056,3.9622,-2.621952657,2.828929623,0.006961222,-162.8214062,-6.784225258,Li2FeP2O7
mp-560365,3.3602,-1.385957096,4.526073268,0,-133.1912574,-4.933009533,Rb2Zr(IO3)6
mp-760165,0.1035,-2.303228688,2.875599068,0.049001045,-307.0520333,-6.675044201,LiCu2(PO3)5
mp-760179,0,-1.284470584,5.320210198,0.038895271,-65.1662031,-4.654728793,Cu3(OF)2
mp-570168,3.6395,-1.426741319,3.473044395,0.005464117,-79.23656046,-2.829877159,Rb2ZnBr4
mp-776274,0.4723,-1.875219042,3.727128987,0.084406426,-352.3340196,-6.291678921,Na5Bi2As(CO4)4
mp-9078,0,-0.905736422,8.517819663,0,-75.66169666,-6.305141388,BaPIr
mp-764885,1.2663,-2.314399029,3.171872237,0.07160706,-297.4751571,-7.255491638,LiFe8(BO3)8
mp-685968,0,-1.842657536,4.259866354,0.016965639,-172.6027839,-6.16438514,Ba6Nb5S17
mp-540773,2.5192,-1.779069254,2.57280146,0,-139.7539789,-4.991213531,Ca2GeS4
mp-17794,0,-0.792904904,10.87779439,0,-103.4360028,-6.464750176,HoGe2Ir
mp-755420,2.9068,-3.608318125,6.581804165,0.050483949,-106.5612784,-7.611519888,SrSm2O4
mp-3143,4.9638,-2.31570942,2.59487786,0.003888606,-78.51369658,-5.608121184,Na2SO4
mp-22968,5.4505,-1.121895869,2.392958429,0,-52.45857696,-4.37154808,NaClO4
mp-30208,0,-0.868991459,5.246027907,0,-49.7244619,-6.215557738,YCuP2
mp-3323,3.2254,-3.629117905,5.092974708,0.054920909,-41.05641042,-8.211282084,SrZrO3
mp-8447,0,-3.449023579,2.698529407,0,-250.0185486,-5.68223974,K5Ti3F14
mp-625789,2.2086,-1.490203346,4.158221194,0.072563192,-195.3006262,-5.425017393,Sn3(HO2)2
mp-761471,0,-1.240884552,5.319760558,0.051455667,-76.1227924,-5.855599415,Co5O8
mp-28477,5.2513,-1.382069019,2.972464758,0,-83.97773526,-4.665429737,Sr(ClO3)2
mp-542435,2.2441,-1.058141244,2.445092916,0,-274.4819748,-5.718374474,Li3ScN2
mp-561499,1.4824,-1.803710047,5.756470034,0.009469136,-135.6409435,-5.651705977,Dy3CuSnS7
mp-15698,0,-1.065385813,4.251614598,0,-61.77375707,-3.860859817,Sr5As3
mp-30981,3.0704,-1.392956956,2.990060593,0,-264.1910667,-5.080597437,Te(HO)6
mp-762671,0.6584,-1.828485197,2.594543855,0.052582508,-212.5394969,-7.590696317,Mn2(CO3)3
mp-570419,0,-0.526321858,5.06911732,0,-177.6075675,-8.073071251,Zr3Al3C5
mp-864767,0,-0.181246286,7.604528505,0,-35.40977673,-1.475407364,YbZn11
mp-781049,1.4506,-3.140316683,3.256578727,0.001020342,-199.3727099,-6.230397185,V4OF11
mp-14970,0,-2.880673715,5.938359495,0.001562687,-129.3742869,-7.187460383,BaLaCuBO5
mp-977387,0,-0.347288654,12.26024401,0,-9.45267378,-2.363168445,TbAgHg2
mp-23922,4.1598,-0.326840153,1.336811255,0.032086829,-189.5342265,-5.922944577,HN
mp-7883,0,-0.439661755,9.039232029,0.030523158,-19.99333924,-3.998667848,Ca(GeAu)2
mp-634657,3.1577,-0.943970316,1.756931857,0,-21.74893534,-3.624822557,NaHS
mp-755054,1.4514,-2.690337915,3.891860425,0.007008512,-147.5965507,-9.224784416,Ti3N2O3
mp-10960,0.7039,-3.358395428,5.549560778,0,-90.05244682,-8.186586075,Tb2Ti2S2O5
mp-766350,3.0303,-2.474812095,5.411042478,0.088723248,-181.8435207,-6.494411455,LiSiBiO4
mp-31078,0,-1.002339951,8.422252353,0,-60.12575208,-7.51571901,CeSiRh2
mp-32959,5.2801,-1.324532177,1.518322457,0.068575559,-29.35897009,-4.893161682,H2O
mp-754408,3.0364,-1.714814296,4.739838874,0.056258718,-60.16184957,-3.342324976,Ba2SrI6
mp-558941,5.1083,-3.428145838,3.640580825,0,-218.8134224,-7.814765085,LiYSiO4
mp-768095,0.5907,-2.405517152,4.150756436,0.097000201,-527.1797815,-7.752643846,KV13O20
mp-624253,0,-0.703546496,6.047275519,0,-115.0920637,-6.057477035,Nb4Co2PdSe12
mp-21233,0,-0.934331839,6.099079839,0.007340234,-39.06737178,-7.813474356,Ti3InN
mp-770805,4.2889,-2.982444969,5.395978262,0.001721446,-211.3557448,-7.045191493,Li6Hf2O7
mp-504927,0.045,-1.371177283,4.044787217,0.031296183,-73.71144119,-6.142620099,CrCuO4
mp-638236,2.8242,-1.095235623,3.041451979,0.075672566,-159.1590796,-7.23450362,OsC4(ClO2)2
mp-20217,0.7567,-1.487078287,3.899867865,0,-134.1162906,-6.705814531,EuPS3
mp-867528,2.7924,-1.674802033,3.572759649,0,-382.3439081,-5.974123563,Ge7H8N2O15
mp-861914,0.8074,-0.701504584,4.341714468,0,-142.8653169,-7.143265847,Ba3Co(CN)3
mp-568555,0,-1.026208199,8.640645581,0,-43.76504639,-7.294174398,SmSi2Rh3
mp-707734,3.1718,-1.599977967,6.083193448,0,-268.0568894,-4.786730167,AsHPb4(ClO)4
mp-1908,0,-0.789730895,6.618431622,0.014849622,-198.0678806,-5.501885572,Pr5Ge4
mp-777292,3.7772,-2.016596744,3.51295937,0.066796598,-290.1554851,-4.266992428,Ba3Y2Br12
mp-756137,0,-2.636941817,5.200961909,0.037730683,-165.6321564,-8.281607821,Li3Nb6O11
mp-16526,0,-0.861148919,15.41686206,0.001539951,-73.78083095,-6.148402579,AlPt2
mp-17337,3.71,-2.603684032,3.519020382,0,-135.1951127,-4.82839688,RbAsOF4
mp-631555,0,0.588009447,6.665725115,0.825996699,-22.25268274,-7.417560913,MnVNi
mp-755205,1.7211,-2.252213358,6.122363764,0.102456308,-193.9498811,-9.697494055,Zr2N2O
mp-12017,0,-0.419898574,5.933236453,0,-36.80503858,-4.600629823,CeAl4Ge2Au
mp-767222,1.6044,-2.476805146,3.643808769,0.022295967,-90.19101152,-6.937770117,LiFe2(PO4)2
mp-769404,1.822,-2.525261486,4.4624869,0,-282.0994925,-7.052487314,YSeO3
mp-976408,0,-0.161028412,3.107312131,0,-9.19670517,-2.299176293,Li3Ag
mp-25225,0,-1.737793729,5.341143704,0.060034755,-121.2425726,-5.511026027,Ba2(CuO2)3
mp-583193,1.8309,-0.897342434,3.887909194,0,-116.9308065,-3.654087703,Cs3PSe4
mp-862336,0,-0.99007538,9.201806776,0,-30.66734447,-7.666836118,Sc2IrPd
mp-556679,4.3828,-3.237210982,2.786623357,0,-250.987177,-6.971866029,Na2Ca3Si3O10
mp-11407,0,-0.436450137,17.67976235,0.014321775,-22.9469559,-5.736738975,GaPt3
mp-978563,0,-0.463445909,8.311785748,0,-16.6519112,-4.1629778,SmHoIn2
mp-10835,0.9731,-1.966369831,4.83749646,0,-88.2743115,-5.517144469,RbSm2CuS4
mp-28334,1.4648,-0.463871362,6.78490906,0,-132.103815,-3.669550417,Tl4SiSe4
mp-15433,0.9069,-0.358751479,4.159090466,0,-185.4024397,-3.310757851,K2Ga2Sb3
mp-22680,0,-0.321762153,9.232261121,0.021083405,-16.84293539,-4.210733848,DyInCu2
mp-29489,3.5478,-1.978743204,2.328725525,0.044347212,-156.9170032,-6.538208465,P4SeO7
mp-556100,1.9026,-1.966474768,5.009430002,0.009432187,-185.5802898,-6.186009659,Si(Sn3O4)2
mp-570272,0,-0.27914706,5.573213881,0.002931373,-27.57847664,-3.939782377,Tb2Mg3Ni2
mp-11091,0,-0.898767074,8.790775166,0,-45.36768196,-5.040853551,NdMgPt
mp-720461,4.9847,-1.190185038,1.494821184,0.024781149,-1161.486836,-6.049410603,P3H22C3N9O11
mp-770589,2.346,-2.698673432,3.08584919,0.061062036,-306.7581101,-6.39079396,Li3Al2FeO6
mp-4628,0,-1.077664635,5.80191162,0,-41.39066488,-6.898444147,ZrSiSe
mp-2767,0,-0.467006698,6.197684371,0,-23.7236188,-5.9309047,TiGa
mp-15642,0.0261,-0.395378983,3.031917321,0,-39.59936974,-3.299947478,SrMgSi
mp-756035,0,-3.337453872,3.732863485,0.046684605,-110.6947039,-8.514977225,LiTi4O8
mp-769048,2.0938,-1.403023786,2.349351499,0.077843474,-163.6756862,-5.114865194,Li3NbS4
mp-770581,0.5349,-2.306152275,4.419545101,0.075634518,-133.1709641,-6.658548204,MgMnO3
mp-569512,1.5838,-0.942961914,2.571858878,0,-100.4273297,-2.510683241,SbICl8
mp-753605,0.9218,-0.9407544,3.223871444,0.024718877,-49.17578662,-4.097982218,LiCuS
mp-768084,0.8115,-2.467879643,3.850349817,0.047250958,-290.7972395,-7.092615598,Li8V11O22
mp-643776,3.0284,-1.535680583,3.307490749,0,-95.32965833,-5.017350438,Na2ZnH4(SeO5)2
mp-29287,0.7029,-1.344496943,3.77701501,0,-60.08342178,-3.337967877,Cs3CoBr5
mp-776715,3.377,-2.900807942,2.795747024,0.058549086,-247.7245037,-5.160927161,Li3Fe2F7
mp-763491,0,-1.61957389,4.624906498,0.132141587,-146.6953333,-6.112305553,Fe4O7F
mp-734123,5.3296,-2.307582826,2.597283732,0.027370968,-568.6391045,-6.180859832,RbSrP3(HO2)6
mp-680671,0,-0.126833708,4.902721617,0,-83.61149204,-1.520208946,Mg4Zn7
mp-698587,1.6984,-2.476989441,4.966626051,0.01892884,-365.7557661,-7.315115323,TiNiO3
mp-19287,1.9872,-2.95991613,3.346210724,0,-149.0877873,-7.454389364,NaV(SiO3)2
mp-774382,3.8069,-3.034131081,2.914656318,0.063799608,-305.7237001,-5.459351787,Li2MnF4
mp-759472,1.4109,-1.337412407,2.61288215,0.082311188,-196.9839856,-4.92459964,LiCu(HO)4
mp-770092,5.292,-3.204814013,3.853250774,0,-329.6274519,-8.240686298,HfP2O7
mp-8640,0,0.07117866,13.17229888,0.07117866,-9.88304915,-9.88304915,Hf
mp-27335,0,-0.08460441,2.060933405,0,-21.5312702,-3.588545033,NaAlSi
mp-767341,4.4398,-2.772866637,2.498540595,0.047458792,-175.2861125,-7.303588022,Li2ScPCO7
mp-758658,4.8122,-3.443856723,2.701647609,0.002459766,-395.7223777,-7.610045724,CaAl2(SiO4)2
mp-13007,0,-0.391250014,7.155419728,0.038290757,-60.489748,-6.0489748,PrCrGe3
mp-510608,0.327,-1.516911751,4.132855374,0.010273227,-192.1759169,-5.338219913,ZnCuAsHO5
mp-22750,3.22,-2.32272722,7.344014624,0.035324989,-85.93077988,-6.610059991,P2Pb3O8
mp-17929,1.4832,-1.543939016,5.618353563,0,-113.5519094,-5.161450428,RbHo2Cu3S5
mp-861651,0,-0.38217876,8.136051959,0,-14.22427422,-3.556068555,Li2PdPb
mp-675214,3.8614,-2.775344477,5.527476872,0.094451968,-73.75936285,-4.609960178,Rb2Bi3F11
mp-756443,2.998,-3.835653675,7.278324726,0.085693374,-137.6985102,-8.606156888,Er2TiO5
mp-772150,0,-3.258165237,3.995569889,0.060058058,-640.0236977,-8.648968888,Li2Ti13O22
mp-706367,5.2022,-2.433018623,2.24146996,0.041841269,-1019.615187,-6.372594918,KCaP3H4O11
mp-3318,6.6745,-3.283675088,2.381931801,0,-140.2969189,-5.010604245,Na2BeF4
mp-863722,0,-0.674191934,11.08952617,0,-28.40045733,-7.100114333,Pm2IrRh
mp-37859,1.7496,-1.945801641,6.026712259,0,-77.66005081,-5.547146486,Sr(PrSe2)2
mp-28520,0.5919,-0.520322872,4.940030231,0.001890201,-51.83424202,-3.239640126,Rb2SnTe5
mp-759386,0,-4.073242495,8.137069389,0.040797937,-101.079028,-9.189002544,Ce2Th2O7
mp-13512,0,-0.539427851,5.416257831,0,-38.36751018,-4.795938773,CaNiGe2
mp-756715,2.8691,-3.43008175,7.339199372,0.009994786,-209.3227853,-10.46613926,Gd3InO6
mp-343,0,-1.473940439,7.22950791,0,-15.68403452,-7.84201726,PrN
mp-977592,0,-0.571862831,9.202157382,0,-81.53836104,-5.824168646,Bi2Rh3S2
mp-28728,0.639,-0.437502486,3.517821527,0,-192.2177672,-3.432460129,K6Sn3As5
mp-768906,4.4876,-3.150734241,4.664391378,0.003110737,-43.55003369,-7.258338948,YBrO
mp-30536,0,-0.136769481,7.310103502,0.024620794,-63.13633691,-7.015148546,V5Sb4
mp-28412,0,-0.774034016,8.013019536,0,-132.6184761,-6.315165529,Ho2Ni12P7
mp-570823,1.715,-0.576211923,4.423298931,0,-82.80910125,-4.600505625,Ba(BSe3)2