id,band_gap,formation_energy_per_atom,density,e_above_hull,energy,energy_per_atom,pretty_formula
mp-768330,2.4065000000000003,-2.3033107015963195,4.112441606625641,0.0790805771212133,-443.20342609,-6.71520342560606,Sn2P2O7
mp-33684,1.1229000000000005,-2.4978855485714284,4.5726931098454315,0.02049622285714925,-107.67101527,-7.690786805,Ti(FeO2)2
mp-571412,1.8426,-0.6222266545021417,4.574218767409802,0.0,-719.07126661,-6.4202791661607135,RbNa5(WN3)2
mp-698479,4.8975,-2.41588712307875,3.608731243099053,0.0,-146.47413861,-4.5773168315625,RbTeHOF4
mp-769144,2.0668,-1.894518634916668,4.765659331101354,0.017324507833330394,-369.83275429,-6.163879238166668,SnGeO3
mp-19896,2.2544000000000004,-1.143247636979167,4.104667803253029,0.0,-35.18588745,-4.39823593125,Li2GePbS4
mp-600018,5.4479,-3.266430536944444,1.857484118091835,0.011567132222221943,-284.56815844,-7.904671067777778,SiO2
mp-778916,,,,,,,
mp-27774,1.4161,-0.5726785416424995,2.093644365360876,0.0,-78.52348862,-4.90771803875,NClO6
mp-12160,4.7449,-2.843665014013157,3.291020387008604,0.0,-513.2589696,-6.753407494736843,Li6Ho(BO3)3
mp-780510,0.2926,-1.9557430559226363,3.076939949258492,0.5429683814127646,-227.78508369999997,-7.118283865625,LiMn3(BO3)3
mp-850469,,,,,,,
mp-22951,4.0263,-3.0307016970633334,5.208380634280924,0.0,-27.91127024,-4.651878373333333,BaIF
mp-762908,,,,,,,
mp-778064,0.9393,-1.7743459680185711,4.817047963697124,0.04386986499999779,-168.77664052,-6.027737161428571,Ga3NO3
mp-22882,4.4989,-2.1012764688888894,5.4845936900383805,0.0,-22.23455552,-3.705759253333333,YbBr2
mp-764002,1.5322,-2.4315556030058323,3.3201643591619483,0.04533507395832537,-162.23075792,-6.7596149133333325,VO2F
mp-25694,,,,,,,
mp-769890,,,,,,,
mp-31958,,,,,,,
mp-571478,0.9464,-0.2063585458333329,6.968478123528027,0.0,-150.44095430000002,-2.0894576986111106,SnHg7(As2I3)2
mp-766365,3.5357000000000003,-1.6516866866666668,3.831432985190285,0.06921951291666639,-79.69835978,-3.3207649908333337,BaCaI4
mp-764528,1.4718,-2.3780648946666663,3.2731590607400327,0.03633922632778752,-317.77900723,-7.061755716222223,Li5Fe8(BO3)8
mp-622026,1.3371000000000004,-1.4403499675000009,6.783317074630299,0.08071136892856856,-175.48260583,-6.2672359225,Cu2WO4
mp-775432,1.1919999999999995,-2.1854813466666667,4.23942824932638,0.12955545230990673,-374.897111,-6.694591267857143,Li2V3TeO8
mp-770178,,,,,,,
mp-567398,1.4132000000000002,-0.8386589055948145,4.567305080578696,0.0,-202.56268083,-5.626741134166667,Sr3MgGeN4
mp-555048,4.6099,-3.2661272419044445,3.864064077558877,0.0,-175.52979038,-4.875827510555556,NaAlCdF6
mp-762841,,,,,,,
mp-755977,2.7905,-1.10625995,4.51708891870501,0.04985391208333256,-73.78259298,-3.0742747075000003,CaPbI4
mp-561479,,,,,,,
mp-773194,0.6097999999999999,-1.8842851999908043,4.0204873325501005,0.4284477380096563,-187.93167462,-6.711845522142857,Li4Mn5V3O16
mp-28941,1.1126000000000005,-1.1166027918402783,6.5689142908563705,0.031147803333333,-130.96331694,-5.4568048725,HfAg2S3
mp-28372,1.7274,-0.785017909740417,2.9494574995693887,0.0,-90.44764417,-2.5124345602777782,AuSeCl7
mp-763483,,,,,,,
mp-999274,2.1728,-0.13999492743500008,2.069083284664115,0.10520058249999976,-9.33221011,-2.3330525275,RbNaH2
mp-756868,1.9797,-2.2102138844642853,4.42519497158536,0.020394976428572242,-71.51376531,-5.108126093571427,Rb3DyO3
mp-733590,0.3826999999999998,-1.3529033435775002,5.229933217183119,0.045522804687501583,-280.39952817,-5.841656836875,TlCuHCO4
mp-25041,,,,,,,
mp-559573,1.2937,-1.9782572910648148,6.592242879051759,0.03465355625001898,-942.82010502,-6.5473618404166665,UAgIO6
mp-7467,0.9172,-1.365335285,3.708570373715226,0.0,-38.06482564,-4.758103205,RbCuO2
mp-779246,,,,,,,
mp-559292,2.358,-2.042565105646777,3.8533327325571407,0.0,-285.72738569,-3.663171611410256,P6Pb3Xe11F58
mp-754572,3.4989999999999997,-1.6455412672222218,3.736422773175877,0.04966042416666694,-59.74364419,-3.3190913438888887,BaCa2I6
mp-7220,2.2099,-1.969146628489584,3.6233568212879392,0.06763617874999728,-148.14905248,-6.172877186666668,NaY3SiS7
mp-761384,,,,,,,
mp-777713,,,,,,,
mp-707373,3.202,-1.343406170031733,1.5651057596934894,0.03693705883333731,-238.04649349,-4.7609298698,MgH12(ClO5)2
mp-771570,3.4312,-1.6065463087037033,4.169749420570538,0.08214476861111207,-115.92558564,-3.2201551566666664,Sr2CaI6
mp-7290,2.1036,-2.117941058875,5.6219894613823795,0.0,-117.49542822,-5.874771410999999,Er3GaS6
mp-15900,1.6938000000000004,-2.7515773151785714,4.721313172030633,0.0411643930803578,-92.6281848,-6.616298914285713,Sr3Sc2Cu2S2O5
mp-24197,0.6003999999999999,-1.6686484321674198,2.5102376745970423,0.004813489354838829,-326.10102489,-5.259693949838709,Rb2CuH12(SO7)2
mp-774289,,,,,,,
mp-763089,,,,,,,
mp-705785,,,,,,,
mp-14588,0.8725999999999998,-0.8171278809374997,5.664987880722995,0.0,-39.54563216,-3.954563216,Na2PtSe2
mp-767452,,,,,,,
mp-29849,0.5057,-0.05025450409090902,4.837975524159224,0.0,-101.87136545,-4.630516611363637,Ag3SnP7
mp-566574,,,,,,,
mp-19154,1.7431,-2.234311885714285,4.506892566433447,0.0,-184.05763994,-6.5734871407142865,Ba(FeO2)2
mp-14712,3.4744,-0.8631628364381747,2.1669346210645553,0.0,-487.54870898,-5.0786323852083335,Li7PN4
mp-578796,,,,,,,
mp-850152,,,,,,,
mp-566698,,,,,,,
mp-19442,1.3192000000000004,-1.2197929807076784,5.988016226430585,0.0,-81.43800558,-5.429200372,Mn(Ni3O4)2
mp-569128,1.4083000000000006,-0.040699122187500165,2.4499735629128088,0.0,-204.99487255,-6.4060897671875,SiB3
mp-755870,2.0642,-2.037104534,3.5167186218751274,0.06895604750000127,-115.98188896,-5.799094448,Na5GdO4
mp-770534,1.3872,-1.2729817449107372,3.842762130752273,0.7543112613125418,-142.51170777,-5.93798782375,Li2Mn3O7
mp-546285,0.8092999999999999,-1.1810073842500004,4.634769938334137,0.0,-49.64806925,-4.964806925,NbI3O
mp-771382,,,,,,,
mp-505130,4.1562,-2.364267955488505,4.6013294777448035,0.003707921666666891,-89.01639833,-7.418033194166667,CsReO4
mp-8255,2.645,-2.7027077102675,4.57479235690213,0.0,-38.21533293,-4.77691661625,CaPtF6
mp-504891,0.4504000000000001,-1.905749776794181,4.588152378613328,0.09108854583333148,-148.35548819,-6.1814786745833326,La3MnGaS7
mp-763560,0.7192000000000001,-1.8068675880472107,2.3212529652314684,0.0930729552631675,-139.05618457,-7.318746556315791,LiMn2(CO3)4
mp-766781,,,,,,,
mp-780258,2.0012,-2.057943427375,3.0599118007420896,0.03258172562499961,-392.47374623,-4.905921827875,Na5LaO4
mp-770106,,,,,,,
mp-19509,0.9268999999999998,-2.502444000016027,4.69027266706198,0.008587790534184236,-408.88313797,-7.863137268653847,SrV10O15
mp-29713,2.1731,-1.4240051049400002,2.5082600018739143,0.010870160037878218,-80.38664183,-3.653938265,NbTeCl9
mp-30229,0.7649999999999999,-1.60086686453125,5.178183336385943,0.0,-327.88631533,-5.12322367703125,Tb5C2Br9
mp-669389,1.4841999999999995,-2.497848116590909,6.035965966735647,0.0,-136.21791829,-6.191723558636364,Sr3InRhO6
mp-769595,1.6105000000000005,-2.4289583126041663,4.058067674119625,0.01019797812500034,-221.56969349,-6.9240529215625,Li4VCr3O8
mp-5055,1.4025999999999998,-1.2565351074686524,2.1723636043595294,0.0,-89.4977803,-4.0680809227272725,Na6MnS4
mp-764141,,,,,,,
mp-18148,2.7558,-1.6027958042500001,2.8805842800703187,0.0,-167.61320009,-5.2379125028125,K3TaS4
mp-25769,,,,,,,
mp-8161,0.9734,-2.8572332266266667,4.36699209399242,0.0,-60.00309914,-5.000258261666667,CaPdF4
mp-39511,3.665,-3.4099859463960613,6.077333263644738,0.030031682196968387,-184.05665701,-8.366211682272727,LiCaTa2O6F
mp-704810,2.5105000000000004,-1.873024450431818,2.232344023701733,0.06958559045455992,-135.64764014,-6.165801824545454,K2Cr2O7
mp-753945,3.6469,-1.0580345971160001,2.3320863543110626,0.0,-60.20535933,-3.0102679665,ClOF3
mp-772238,,,,,,,
mp-772382,,,,,,,
mp-676156,1.1315,-1.8355686727380955,6.511740190469122,0.4077506324107052,-126.69502061,-9.049644329285714,Gd5AgS8
mp-984555,2.2339,-2.15115779479526,5.075948418051016,0.0,-42.10560025,-5.26320003125,CsDyS2
mp-558985,4.501800000000001,-3.6664696984471417,4.981525948218294,0.0002522257142789641,-224.40910626,-8.014610937857142,La3Si2ClO8
mp-850105,,,,,,,
mp-761379,,,,,,,
mp-763842,,,,,,,
mp-756633,2.7233,-1.9069874973214287,5.151690564808804,0.07646101178571474,-142.79637531,-5.099870546785715,Li3BiO3
mp-776402,3.2060000000000004,-0.16692222088666575,0.933279164856157,0.006570894966032803,-901.99755276,-4.902160612826087,B10H13
mp-632319,2.6482,-0.15761880327551706,3.87062520010453,0.05196390000000006,-4.45037664,-2.22518832,CsH
mp-565565,,,,,,,
mp-17719,1.9689000000000003,-1.9928894133506947,4.636835746964195,0.0,-142.57908611,-5.940795254583333,La3SiAgS7
mp-699390,3.0981,-2.1852033708510508,4.902698347222534,0.0,-607.97670377,-7.999693470657895,Pr4Si4N7ClO3
mp-776791,,,,,,,
mp-18572,5.2952,-2.9280039092936514,3.5634695705062214,0.014881065555553796,-261.96604637,-7.27683462138889,KEr(PO3)4
mp-645796,2.5518,-1.9347344195833331,4.9167841041462435,0.0,-319.6374281,-6.659113085416667,TlFe(MoO4)2
mp-754741,3.4037,-3.739594353333333,5.022661170472506,0.08421668833333484,-113.03125851,-9.4192715425,ZrO2
mp-773285,,,,,,,
mp-25065,,,,,,,
mp-767364,,,,,,,
mp-7470,1.1422,-1.1939973329166669,4.043743477524364,0.0,-51.62959284,-4.30246607,RbCuO
mp-764467,,,,,,,
mp-558883,4.5652,-3.6450658893399983,4.1727863792548,0.0078003509523814065,-465.98040983,-8.321078746964286,Y3Si2ClO8
mp-28815,1.9876,-0.9387084237499996,4.900187872581923,0.020736291979169152,-56.11975002,-3.50748437625,ThSnI6
mp-25157,,,,,,,
mp-769297,2.9673000000000003,-3.4729499846701373,7.025316665908519,0.016339632083463233,-202.91429705,-8.454762377083332,Sr5Ta4O15
mp-21084,0.5592999999999995,-1.7846658588235291,7.2824105084030055,0.0,-92.94183328,-5.467166663529412,In6Ga2PtO8
mp-559171,2.3814,-1.593358348771429,3.551301077671829,0.0,-527.90668106,-5.2790668106,Ba3Ho2(PS4)4
mp-626486,5.2574,-1.562326497635499,1.7914651221539435,0.05481285525000068,-213.13411533,-5.32835288325,H4SO5
mp-778752,2.4632000000000005,-2.0280157623611106,7.434587776672572,0.053049939305557466,-462.69302883,-6.426292067083334,In2WO6
mp-566745,,,,,,,
mp-772991,0.3725000000000001,-2.554665683522728,8.14709607438547,0.09613673465909224,-298.91465264,-6.793514832727272,Er2Bi2O7
mp-559419,4.6715,-3.2045249732944048,3.6655212838876547,7.752723216292168e-06,-779.49865032,-6.959809377857143,Ba9LiSi10C(ClO4)7
mp-1019600,1.9005,-3.808018747083333,6.139073808527304,0.044384254791667736,-222.47547952,-9.269811646666666,CeZr3O8
mp-6757,2.619800000000001,-3.297743598632813,6.581727620623534,0.021893133124997632,-488.31576900000005,-7.629933890625,Ho4Si2S3O7
mp-4657,3.763,-2.243838868833333,2.8242492069547613,0.0,-415.950038,-5.199375475,Li5GaO4
mp-764556,0.6784000000000003,-2.212008639198334,3.588322477524576,0.4815798021428552,-142.83908359,-5.1013958425,Li5Fe7O3F13
mp-760510,2.2483000000000004,-2.3627064093981485,6.288777388186097,0.0005193163888881358,-107.28896059,-5.960497810555554,Sr2Bi2O5
mp-1019545,4.0441,-0.9095057130946924,3.19930442094302,0.0,-316.45447998,-7.534630475714286,Be(PN2)2
mp-773679,,,,,,,
mp-765509,2.0792,-2.6551281185911115,2.8815711964125,0.07039814458333192,-146.28991576,-6.095413156666668,LiV(OF)2
mp-473,1.8364,-0.24157894191326534,2.0462172829147045,0.0,-267.45967471,-4.776065619821429,Na3P11
mp-641117,1.4582000000000006,-3.5235240072685188,5.802228216971629,0.11640688613425887,-458.61601018,-8.492889077407408,La5Ti4FeO17
mp-30244,3.5667,-2.3388424368080942,2.6114715861940128,0.0200639185714282,-38.78215862,-5.540308374285713,Mg2H2O3
mp-767197,,,,,,,
mp-774116,,,,,,,
mp-7774,0.3902000000000001,-0.4587502487499999,5.727519072768509,0.0,-23.72465626,-2.9655820325,Na2SbAu
mp-600941,,,,,,,
mp-762034,1.0697,-2.0283876707817465,2.5065015449344905,0.2595990912500001,-93.7498573,-6.2499904866666665,Li2Co2P2O9
mp-974451,4.0212,-3.220689906903333,2.4828409116720263,0.01113060767973728,-108.55251078,-6.030695043333334,K2Al2O3F2
mp-776883,,,,,,,
mp-780046,,,,,,,
mp-24956,,,,,,,
mp-566312,,,,,,,
mp-6892,4.5304,-2.2897354227514377,2.4997411140016714,0.0,-371.56034754,-6.40621288862069,Na6Mg2C4SO16
mp-18890,3.0854,-3.0692526405,3.5084779381523385,0.008258229333341305,-298.99624121,-7.47490603025,CaFe(SiO3)2
mp-541677,1.7061,-1.86938470421125,5.299347272667268,0.0,-159.31681305,-4.9786504078125,Cd2AsO4F
mp-566164,,,,,,,
mp-753748,2.2334,-1.208554516458334,2.430793740679034,0.055912439583343236,-96.09312825,-4.0038803437500015,Li3CuS2
mp-763406,,,,,,,
mp-704753,,,,,,,
mp-556737,1.1657000000000002,-3.009670604017857,5.309147532671274,0.0054710130952466685,-314.92701023,-7.498262148333334,Pr6Ti2S7O6
mp-510128,2.4873000000000003,-2.62927142424857,5.599402403431465,0.036544728214301436,-212.63378071,-7.5940635967857135,U(HO2)2
mp-767817,,,,,,,
mp-9037,2.2402,-2.120843047295259,4.3637981783868565,0.0,-42.21130688,-5.27641336,CsPrS2
mp-5479,6.8786000000000005,-3.6571231253766654,3.545331737816781,0.0010009618333333137,-32.35104919,-5.3918415316666675,RbAlF4
mp-557347,3.435,-2.1676667796790468,5.7008846750329845,0.0,-253.67011455,-6.039764632142857,Ca2As3Pb3ClO12
mp-9582,0.7959,-0.7453622807619045,6.373592765885519,0.0,-18.61189961,-3.722379922,Yb(ZnP)2
mp-763637,,,,,,,
mp-761653,,,,,,,
mp-29806,0.5993000000000002,-0.7853835028735631,4.735264474452849,0.011941704166666513,-23.179797600000004,-2.575533066666667,Cs2PdI6
mp-638749,0.6621000000000001,-0.38937547545454587,5.848388972065082,0.0,-81.93337388,-3.724244267272728,Te3(PdBr)4
mp-630852,,,,,,,
mp-762351,2.4512,-3.248539578765432,3.5398970791926296,0.035188688703710724,-218.54227742,-8.094158422962963,Li4Ti7O16
mp-777303,,,,,,,
mp-540540,1.7574,-2.2307871342500003,4.89273692360899,0.0,-59.65009084,-5.965009084,PaBr3O
mp-561394,,,,,,,
mp-566795,,,,,,,
mp-18547,3.2576,-2.848487311071428,5.1089130671554175,0.0,-227.71171971,-8.132561418214285,NaGdGeO4
mp-25491,,,,,,,
mp-6853,3.913,-3.092303690543478,4.471463821603012,0.0,-168.349518,-7.319544260869565,Ca3TaGa3(SiO7)2
mp-35220,4.6277,-0.6001293029878569,2.446486535004504,0.0019178362499969734,-53.91696822,-6.7396210275,PHN2
mp-27409,0.4791000000000001,-0.9455993745,4.2318611239532675,0.0,-32.79826473,-3.279826473,RbNiBr3
mp-39823,3.2507,-3.033137220703125,2.107508486119309,0.0,-334.96190702,-6.978373062916668,Na8Al6Si6CO27
mp-722902,2.7739000000000003,-1.3960574260766665,1.512208448988111,0.028749324935427367,-155.40106701,-5.5500381075,LiH2NO3
mp-7899,0.9776000000000002,-2.157793924375,6.593262793706286,0.0,-79.79072098,-4.98692006125,BaCdO2
mp-753813,5.0529,-1.3268510304466663,2.6755704620263177,0.012988352500000744,-83.84563355,-4.6580907527777775,Ca(ClO3)2
mp-762897,1.2198000000000002,-2.663738524652014,2.7036561882282504,0.04354412971156929,-362.55479268,-6.972207551538461,Li2V(PO4)2
mp-764700,,,,,,,
mp-997536,,,,,,,
mp-849392,0.4047000000000001,-2.5795017144236976,2.706223464398108,0.10187104399509206,-441.99786971,-6.499968672205883,Li9V2P4HO18
mp-989646,1.7100999999999995,-1.220102975428,6.999966979163817,0.01608691699999909,-95.70413003,-9.570413002999999,LaWN3
mp-554495,4.336799999999998,-3.288917646011905,3.353261594622869,0.0,-379.22428236,-7.9005058825,CaZr(PO4)2
mp-31690,1.949,-2.2471676282280204,2.7811936041481102,0.3846848723076937,-365.21629376,-7.023390264615385,Cr(PO3)3
mp-28828,0.6591,-1.8226874584053332,2.30173800479234,0.09234590255555508,-57.29395385,-3.8195969233333336,Li6FeCl8
mp-16947,3.185,-2.6968919240476183,3.2455711497057527,0.014767336666662524,-276.79749394,-6.590416522380951,LiAlGeO4
mp-30959,3.5474,-1.0399385732205555,1.3797567405256077,0.0,-93.93172081,-3.913821700416667,LiHS
mp-770080,,,,,,,
mp-770594,,,,,,,
mp-781604,1.7227,-2.736514320074166,3.299381225313913,0.1361217145833269,-152.59907512,-6.358294796666668,VOF2
mp-776879,,,,,,,
mp-557151,2.0324,-1.1316320803125,3.9997059984410943,0.011870836607143165,-55.96571706,-3.49785731625,ZnS
mp-853139,,,,,,,
mp-765244,,,,,,,
mp-29043,0.7152000000000001,-0.18384788402777769,7.040271921671022,0.0,-125.59338721,-1.7443526001388892,Hg4Sb2I3
mp-32310,3.3708,-3.142525410083333,7.70219676334379,0.0,-473.74863688,-7.895810614666668,Ba3Ta2NiO9
mp-558244,0.5303,-1.934920258015556,3.806802269662533,0.0,-67.28821863,-3.738234368333333,As(IF3)2
mp-28790,3.1127,-1.3928434559628375,3.0779214459719664,0.000677323648649697,-360.49087925,-4.871498368243243,Al13(TlS7)3
mp-720721,5.474,-1.271937075825365,1.6254376275342008,0.02678945030487867,-967.68356051,-5.900509515304877,SiH18C4N8(O2F3)2
mp-559642,4.8628,-3.4564356216944447,3.8846288151640342,0.0031998102500185865,-462.10356713,-7.701726118833332,CaZrAl9BO18
mp-557705,0.5740000000000001,-1.851997444345001,5.006090408521634,0.020533542187496145,-140.36920182,-5.8487167425,OsO2F3
mp-5040,3.3702,-2.108306872656251,4.3333295693588285,0.0,-185.52338768,-5.797605865,CaTe2O5
mp-639733,5.6305,-3.2604551797222223,1.768626312235229,0.017542489444442918,-568.70609116,-7.898695710555557,SiO2
mp-25565,,,,,,,
mp-764179,,,,,,,
mp-760080,1.9613,-4.331824101333333,9.620401543698877,0.002182264666666711,-287.52584582,-9.584194860666663,CeTh9O20
mp-768034,,,,,,,
mp-743762,2.8699000000000003,-2.118801953888644,1.9287464891738515,0.5563021946186488,-364.3496121,-6.175417154237287,Ca2Al4Si8H14O31
mp-25134,,,,,,,
mp-770557,0.8102,-2.258209436692554,2.8393947082318864,0.2864091753205482,-350.82306235,-6.746597352884615,Mn2P2O7F2
mp-755898,3.4152000000000005,-3.890719060795455,9.039940323193976,0.006264016818176898,-196.15523926,-8.91614723909091,Er3TaO7
mp-765275,,,,,,,
mp-558188,0.7385999999999999,-1.0663567341666664,7.6358832863493875,0.0,-134.44724362,-4.201476363125,AgHg2AsO4
mp-1019269,2.0771,-0.9223486273655556,4.201942503053373,0.008068922083332986,-20.15627332,-3.3593788866666667,Sr2H3I
mp-645183,,,,,,,
mp-696403,6.0887,-2.301916509446667,1.6933318521158482,0.0027070218750049327,-331.41749134,-6.904531069583333,BHO2
mp-758056,0.2513999999999994,-2.6839573631084646,2.812784237123757,0.10381268996031777,-261.4326746,-7.262018738888887,LiTi(PO3)4
mp-771647,0.43489999999999984,-2.292691861704545,8.602344087753801,0.08867697590909174,-307.81239356,-6.995736217272728,La2Pt2O7
mp-850978,1.767,-1.7969000008333325,3.959429217688542,0.3708088030208465,-81.80143018,-6.816785848333333,VFeO4
mp-766672,,,,,,,
mp-765552,0.4936000000000002,-1.4759176704935628,4.245613136249961,0.5190546721875009,-90.64604612,-5.6653778825,Li2MnCoO4
mp-642642,0.3087,-0.4935266677380958,5.082491817291966,0.004893594999995976,-202.34043852,-4.2154258025,Ba2(InP)5
mp-559585,,,,,,,
mp-775451,,,,,,,
mp-24811,0.22060000000000013,-2.2104766588493328,2.6040750871229887,0.054830673689315816,-187.59808789,-6.2532695963333325,KTiH2S2O9
mp-19599,,,,,,,
mp-763718,,,,,,,
mp-555407,2.4981000000000004,-1.8782034486342587,3.969908859988816,0.0,-320.10948546,-5.927953434444443,Nd6Si4S17
mp-566277,,,,,,,
mp-556296,1.0495,-1.5293209023437502,3.4836830419464464,0.025960298749985174,-73.82089616,-4.61380601,BaS3
mp-4112,3.7991,-1.7779210929464289,6.427091129117253,0.0,-150.49762093,-5.374915033214287,Tl2SO4
mp-555282,2.5009,-0.7535094513339476,1.9532772659605984,0.07884929437007583,-345.1085061,-4.540901396052631,Ga2S5N5Cl7
mp-568735,2.0149999999999992,-0.20491973166666672,3.1732939939128126,0.0007679913333333843,-271.07999889,-7.529999969166667,SiC
mp-24045,5.4239,-2.2361574966084525,2.522071658445445,0.02368901843749249,-595.40552887,-6.202140925729167,AlP(H2O3)2
mp-16037,1.1021999999999998,-3.2542574905,8.302077739137605,0.0,-37.119493,-7.4238985999999985,Dy2TeO2
mp-769815,,,,,,,
mp-771840,,,,,,,
mp-561326,3.91,-2.873397437047292,5.5849658183795405,0.0012165374999986154,-78.82958632,-6.569132193333334,LuSeO3F
mp-550117,1.3597,-3.0429643750331437,6.966256348814384,0.0,-79.81373434,-7.25579403090909,Sm4Se3O4
mp-31670,,,,,,,
mp-566301,3.1736,-1.763623778488571,6.861125861178302,0.0,-487.10563152,-5.798876565714285,As3Pb5ClO12
mp-583463,0.4334,-1.1503798016116662,2.6057801189727603,0.0,-100.99421506,-4.208092294166667,FeCl3
mp-561902,0.4129999999999998,-0.6030134823635063,5.735603946222854,0.0,-39.91410034,-3.326175028333333,CsAg3S2
mp-18300,0.2938000000000001,-0.8375824214285714,4.043705661504681,0.0,-111.97615896,-3.9991485342857143,Ca3AlSb3