id,band_gap,formation_energy_per_atom,density,e_above_hull,energy,energy_per_atom,pretty_formula
mp-776056,0,-2.424501,3.473093077,0.094568319,-262.9847179,-7.305131054,Mn3Cr2Sb(PO4)6
mp-850875,1.341,-2.433830495,4.179698197,0.075693933,-138.1788412,-5.757451717,Fe2OF3
mp-19230,3.0597,-2.073297759,2.633902063,0.002212339,-82.75430237,-5.911021598,K3NaCr2O8
mp-6651,3.9245,-3.506983096,4.566519998,0,-370.8996382,-7.132685349,K2Ta2(OF2)3
mp-766596,3.2753,-3.320588972,3.082842381,0.046638194,-591.9324286,-8.221283731,Ti(SiO3)2
mp-976578,0.05,-0.657336045,5.513658278,0,-102.6818984,-4.278412435,NdH3
mp-771912,2.2057,-2.117757435,2.583670613,0.070092433,-376.09541,-6.964729814,Li4Cr2C4SO16
mp-998352,1.1347,-2.21409098,5.43661615,0.023083386,-33.34253198,-6.668506396,BaHfS3
mp-23918,4.7436,-0.193185029,1.957751256,0,-36.97425399,-3.081187833,NaGaH4
mp-780488,3.0151,-2.08865567,2.253944727,0.036100666,-448.7339492,-6.232415961,LiCrP2H5O9
mp-37386,0,-2.496322173,5.685062473,0.034061519,-91.80292306,-6.557351647,La2SmS4
mp-559773,4.0943,-2.891860192,2.925638525,0.040172148,-110.512971,-6.500762997,Na4Sr(SiO3)3
mp-779311,2.9798,-2.35544096,2.956649845,0.059356292,-164.5008858,-6.854203574,LiFeBO3
mp-973992,0,-0.259620971,10.08521797,0.095111255,-18.47414117,-4.618535293,Ho3Pb
mp-675271,0,-1.220464496,1.629550028,0.345957273,-45.57961856,-5.69745232,Na2CO5
mp-677028,1.3731,-2.541156774,5.352332997,0.148376027,-43.76442335,-4.376442335,RbBiF3
mp-1020118,4.5584,-3.23790525,3.140073999,0.016770629,-574.3747832,-7.17968479,MgSiO3
mp-771055,0.2651,-3.566816209,6.538821892,0.091714926,-49.35147984,-9.870295968,EuZrO3
mp-561549,4.83,-3.168274692,2.44706421,0,-369.6693356,-7.393386713,K2Be2(Si2O5)3
mp-1384,0,-0.280242103,16.75805943,0.082095731,-50.9271786,-8.4878631,LaIr5
mp-778824,1.6659,-2.30148904,6.430053972,0.033136861,-137.8282359,-6.891411796,Li4Cr(WO4)3
mp-4207,0,-0.436583674,10.61902916,0,-52.94513062,-6.618141328,USb2Pd
mp-28488,0.0459,-1.737111834,5.979501636,0,-65.15263329,-4.072039581,CuPtF6
mp-559764,4.3828,-3.620109407,5.161500402,0,-443.570501,-7.920901804,Nd3Si2ClO8
mp-756638,0.8754,-2.233890202,6.135745073,0.037293642,-95.53815814,-7.961513178,NbRhO4
mp-31215,0.2188,-1.55613429,4.735192833,0,-57.95838129,-3.622398831,AgPdF6
mp-17193,0.155,-1.714103409,3.245376979,0,-93.7062513,-4.685312565,Ca3GeO
mp-9539,0.2858,-3.910670998,4.889686794,0.056885832,-82.08238549,-6.840198791,EuMgF4
mp-979919,0,-1.833665583,10.78353571,1.106198053,-63.73873009,-7.967341261,TaO3
mp-559771,0,-3.262656385,6.068214351,0.050210331,-522.6312575,-7.685753787,Pr6O11
mp-865866,0,-0.876126432,12.12197005,0,-26.07365814,-6.518414535,LiZrPt2
mp-565679,2.253,-0.969624222,6.485784632,0.013772675,-278.7764317,-4.099653408,Hg4Se4O9
mp-15438,4.7558,-2.501165669,2.784047246,0,-437.6848881,-6.838826377,ZnP4O11
mp-11106,0,-0.932413558,9.585584251,0,-43.18057023,-7.196761705,PaAs2
mp-556433,0.0106,-0.430831242,4.83334445,0.011176125,-81.14962491,-2.254156248,Rb5Tl3O
mp-19234,3.9757,-3.366774533,5.813770953,0.017676038,-128.9740098,-6.448700488,Ba2WO3F4
mp-27164,0.9162,-0.369774291,4.117534938,8.41E-05,-191.6872783,-6.389575943,FeP4
mp-769333,4.1683,-3.471910088,5.171913303,0.036249142,-243.672963,-8.1224321,Ca4Ta2O9
mp-13718,2.4792,-2.319058138,4.704484176,0.004756849,-473.2994682,-5.916243352,NaCd4(PO4)3
mp-20308,0,-0.865603183,9.398713086,0,-87.06529642,-7.255441368,TmSiRu
mp-21496,0.778,-3.187065086,6.734534274,0.014529466,-104.1438638,-7.438847414,LiLa4CuO8
mp-997095,0,-0.698490211,9.887775067,0.000749961,-36.26933867,-4.533667334,NiAuO2
mp-13676,0.7218,-2.081183011,6.022790831,0,-74.3390047,-6.194917058,TlPO4
mp-557683,2.7859,-2.29387908,3.981290999,0.013618773,-271.0667788,-6.160608608,Zn3(BO3)2
mp-24398,5.4067,-2.242195377,2.450926669,0.025480899,-297.5267194,-6.19847332,AlP(H2O3)2
mp-27396,0.7412,-0.969945079,3.633592484,0,-11.19579367,-3.731931223,NiCl2
mp-776873,1.7746,-2.320343476,4.805086286,0.028907113,-316.2269654,-7.905674135,Cr2O3
mp-769643,0,-1.764525928,8.714721361,0.058030636,-196.0039828,-5.939514631,Y(Bi3O5)4
mp-755790,2.7912,-3.008712991,10.26078018,0.013783234,-165.5140411,-8.275702054,HfPbO3
mp-30481,0,-0.530794642,15.07636134,0,-35.47120715,-5.911867858,CaPt5
mp-29369,3.595,-2.667584262,3.896650832,0,-664.4816434,-4.614455857,Sb7F29
mp-30584,0,-0.280621292,9.162275374,0,-27.2370204,-4.5395034,HoCu2
mp-553974,0.6143,-3.380838558,4.356118193,0.000732445,-262.5113884,-5.468987259,Ba7Fe6CuF34
mp-5193,1.1848,-2.179828517,3.802340601,0.000544654,-126.0958941,-6.304794703,SrZrS3
mp-560456,1.4253,-1.192694087,7.995541647,0.01823186,-396.7740196,-4.508795677,Hg2Te2O7
mp-571011,1.7663,-0.675436225,4.07739444,0,-41.39523255,-2.069761628,CsI4
mp-22989,3.7001,-1.336613319,4.15740019,0,-88.87909173,-4.443954587,NaIO3
mp-568545,1.379,-0.339520657,5.408854201,0.022942606,-176.731118,-2.454598861,Cd4P2I3
mp-18639,4.5536,-3.687018954,4.928313051,0.009766069,-363.3837289,-8.258721111,La2Si2O7
mp-780786,0,-2.094965346,2.586010087,0.036033255,-380.3447953,-6.557668885,Na6Fe2P(CO4)4
mp-867160,0,-0.341046548,9.441777201,0,-8.37524918,-2.093812295,LiCd2Au
mp-764013,0.7321,-2.297231031,3.93924796,0.083468537,-224.4388644,-6.60114307,Li5V3CrO8
mp-767088,0.5847,-0.77902479,4.162487822,0.00566496,-138.4130533,-4.325407915,Li3Sb11S18
mp-1005719,0,0.394282491,8.949471836,0.394282491,-25.51277305,-6.378193263,Sm3Np
mp-10289,0.4967,-0.332046032,2.658159165,0,-70.94105061,-7.094105061,Ca(BC)2
mp-1011696,0,-1.029263595,4.06997107,0.018644848,-33.47228122,-2.789356768,Cs2Se
mp-696969,2.3824,-0.768865746,2.375379128,0.000123453,-71.8600092,-5.1328578,Sr(H2N)2
mp-31052,0,-0.931944305,12.47894086,0,-82.33965944,-6.861638287,LaBPt2
mp-541558,0,-0.929979455,8.060093592,0,-120.3048416,-7.076755389,Sc4Ge6Rh7
mp-989595,4.8352,-2.929447475,3.737356311,0.055011932,-43.49808888,-4.349808888,CsRb2InF6
mp-743761,2.5651,-2.389905156,3.614687243,0.102975539,-194.387141,-6.942397892,LiFe3SiPO8
mp-29585,0.6099,-0.427683212,2.501044803,0,-17.64553762,-2.520791089,K4CdAs2
mp-644431,1.1294,-0.456901538,4.199137451,0.009075914,-44.10822392,-3.675685327,Cd2P3Cl
mp-560387,4.9022,-3.013071032,3.336397574,0,-103.3403774,-6.889358491,Cs2Al2P2O9
mp-10895,0,-0.31406402,6.337606704,0,-32.40206312,-8.10051578,Mn2AlV
mp-541954,3.6173,-2.088706652,3.07655239,0,-435.1117876,-6.398702758,Fe2P2H4O9
mp-555740,5.5882,-3.257052575,2.5224538,0.032098441,-189.1944422,-7.883101758,SiO2
mp-29440,1.5657,-0.354294821,5.021626997,0,-409.7358333,-4.656089015,CuMo3I7
mp-781055,0,-2.505785548,4.136085893,0.079842023,-102.1234568,-5.673525378,Fe3OF5
mp-690543,0,-1.610399968,5.011893972,0.108851286,-186.998061,-6.678502177,Mn2NiO4
mp-29979,0,-0.678025338,7.204751522,0,-128.6932965,-9.19237832,Nb3B3C
mp-761869,3.0279,-3.294729964,5.79591496,0.037610221,-485.7144215,-7.039339442,Sr3Li3La5O12
mp-865251,0,-0.084923865,11.98518339,0.097640089,-32.94473132,-8.23618283,TmThTc2
mp-16777,5.2801,-2.920677547,2.98720066,0.001035987,-310.473811,-7.056222978,NaAlP2O7
mp-554129,1.4972,-1.143322984,2.804350582,0,-258.1219694,-3.585027352,Br3N(O2F5)2
mp-38394,1.556,-0.888726337,4.576347903,0.008967244,-28.2115449,-4.0302207,Ba(AlTe2)2
mp-763198,1.1983,-2.623927721,3.3252838,0.095461826,-147.3203899,-6.13834958,Li2VO2F
mp-567705,0,-0.430039687,3.53638973,0,-66.7338111,-5.561150925,TiAl2
mp-766942,1.838,-2.956673339,2.662231962,0.056187007,-168.2019272,-5.256310224,Li2MnF5
mp-972180,0,-0.336614514,7.034186188,0.016288297,-9.98334755,-2.495836888,YbMgIn2
mp-567485,0,-0.581556325,11.67798281,0,-142.0928797,-3.552321992,CaGaAu3
mp-559352,0.268,-2.199454023,7.018144967,0,-115.4375737,-5.771878686,Ba4Na(BiO4)3
mp-709021,3.0706,-2.978759181,3.225154822,0,-659.2069197,-7.490987724,CaTi2(HO3)2
mp-22618,0,-2.079249003,5.917119767,0,-92.25274495,-6.589481782,Y(CuO2)2
mp-16863,2.7368,-1.315479196,2.745841144,0,-131.3635979,-4.105112434,Rb3PS4
mp-7591,0,0.048138435,5.804406322,0.096479802,-9.17431108,-4.58715554,GeAs
mp-754999,3.417,-2.789732121,3.097181558,0.077338781,-64.81604925,-4.629717804,SrLaCl5
mp-560904,1.3199,-1.47047647,6.79420078,0,-90.09957928,-4.504978964,CdHg2SO6
mp-13270,0,-0.303618939,5.935168104,0,-17.14099752,-2.85683292,CaAg2
mp-625788,4.0057,-2.314480159,4.354932361,0.002202523,-87.05281641,-6.218058315,La(HO)3
mp-861983,0,-0.334144691,6.549533589,0,-34.7499136,-8.6874784,Ti2MnFe
mp-867626,0,-1.389983401,10.42847599,0,-421.0192265,-6.578425413,Tl3Os3O10
mp-569089,0,-1.040804821,9.007514459,0,-39.16109494,-7.832218988,Dy(PRu)2
mp-3303,0,-0.423617228,5.617308889,0,-21.60995303,-4.321990606,Ce(AlGa)2
mp-982597,0,0.29131869,16.00804193,0.29131869,-40.28643421,-10.07160855,Pa3W
mp-11742,1.3066,-1.404698546,5.198134656,0,-17.56411007,-4.391027518,CsNdTe2
mp-675744,0,-3.31778947,7.555280819,0.037857793,-291.0257991,-7.65857366,Yb4Zr3O12
mp-5620,0,-0.489619041,10.37919789,0,-48.57100306,-8.095167177,TmB2Ru3
mp-1008911,0,-0.293983952,4.174835853,0.145140974,-16.59701551,-5.532338503,LiMnAs
mp-14457,0,-3.337263425,2.713488142,0,-437.3009893,-5.466262367,Na3Li3Ti2F12
mp-766202,0,-2.872069233,3.551319838,0.075685661,-167.5444688,-6.981019535,Li7Ti3(SiO6)2
mp-721312,4.1589,-1.852872446,2.229806033,0.003871705,-207.8530509,-5.773695859,Na2H2CO4
mp-11121,2.0647,-1.365185904,5.352586661,0,-50.19440551,-4.182867126,CsTbCdSe3
mp-776894,0.0962,-2.725811042,3.347766874,0.08217297,-228.7328274,-7.147900857,NaTiO2
mp-781681,1.0823,-2.516614972,2.611158999,0.079363172,-254.0832019,-7.057866719,LiMn(PO3)4
mp-37167,0,-1.027759891,7.390600964,0,-321.387703,-6.838036234,U12Rh4Se31
mp-752413,3.841,-3.690896085,5.726517815,0.003983532,-113.4015015,-8.100107251,Ca2HfO4
mp-975288,0,-3.083472771,7.569993961,0.00722007,-42.05399759,-8.410799518,RbNpO3
mp-15179,0.7775,-2.455955056,5.135389056,0,-128.9615752,-6.448078759,Pr2S3
mp-626563,3.5779,-1.444250903,1.600564103,0.053926271,-270.1940154,-5.003592877,Ca(H8O5)2
mp-755834,0,-1.371705563,6.775072793,0.089799539,-52.75168881,-5.275168881,AgSnO3
mp-1668,0,-0.812858717,14.73557034,0,-10.51465727,-3.504885757,YbAu2
mp-628305,0.2896,-0.789827668,3.879873992,0,-142.6637374,-4.458241792,K2MnSnSe4
mp-40374,2.8182,-2.894322595,2.922132815,0.035287976,-224.6516351,-7.020363597,Na6TiMn(SiO3)6
mp-38417,0,-2.356732465,5.214325206,0.060367626,-88.29608304,-6.306863074,Ba(CeS2)2
mp-7638,3.3768,-3.277089894,7.889693776,0,-221.2214887,-9.217562027,LiTa3O8
mp-22209,0,-0.352287567,7.206964624,0.04135962,-86.5437267,-8.65437267,Cr3AsN
mp-27194,1.7219,-0.494015422,5.049557265,0,-25.58868657,-2.843187397,SnI2
mp-775811,1.1139,-2.262016485,4.003211028,0.030821277,-191.0871401,-6.824540717,LiVFeO4
mp-19038,2.8228,-2.690630634,3.997815356,0,-264.2105236,-7.339181211,SrV2O6
mp-631529,0,1.216439576,5.060294594,1.755803051,-10.04561809,-2.511404523,BSe2Cl
mp-763317,1.9331,-2.263806522,3.529844874,0.050833909,-106.3409047,-6.646306541,LiVGeO5
mp-773628,0.0055,-2.369616163,3.800706541,0.078733565,-99.25157222,-7.089398016,NaV2O4
mp-973069,0,-0.284683689,11.65858341,0.001750978,-14.9765637,-3.744140925,HoLuTl2
mp-1827,0,-0.416697004,5.573000305,0,-15.89021298,-3.178042596,SrGa4
mp-865508,0,-0.392198405,9.752467656,0,-132.6969289,-6.318901378,U2Ni12As7
mp-754300,2.4906,-2.807563425,8.916443146,0.049291047,-70.38673884,-7.038673884,HoBiO3
mp-560119,4.861,-3.299725508,4.876583199,0.004334388,-43.50923762,-5.438654703,TbCl2F
mp-40251,2.9437,-3.459360748,7.150098243,0.079535084,-80.26307592,-8.026307592,BaLaMgTaO6
mp-756299,4.2257,-2.775734491,4.541896969,0.056690961,-118.9467792,-6.608154399,Li4HfO4
mp-19968,0,-0.303292347,6.074270842,0.017369901,-25.63694625,-3.204618281,CaIn2Cu
mp-752695,3.6748,-1.623219593,3.906708323,0.046431472,-88.23592419,-3.267997192,SrCa2I6
mp-13415,0,-0.673808812,14.70362478,0,-104.5849373,-10.45849373,Ta3B2
mp-756448,1.9829,-1.325603485,4.557512327,0.016965625,-93.62178834,-3.343635298,LaMgI5
mp-1016851,0,-0.855183839,9.461776099,0.291356945,-26.52487434,-5.304974868,HgRuO3
mp-768159,3.0135,-2.276090665,3.042971739,0.049261026,-150.3490834,-6.834049243,LiSnPCO7
mp-19210,0,-1.126649759,11.24014438,0,-24.25225266,-6.063063165,CoPtO2
mp-17704,4.5969,-3.84939105,7.35975079,0.003681438,-265.2355122,-8.288609758,Tm2SiO5
mp-867343,0,-0.176730524,2.969004288,0.002271273,-7.3455744,-1.8363936,Li3Cd
mp-776466,2.1394,-3.203682811,4.556200352,0.027546663,-180.9048019,-8.614514378,Ba2Ti6N2O11
mp-28716,0.6899,-1.755353587,2.43957849,0.037691845,-59.23277186,-4.230912276,Na2CrCl4
mp-1013710,0,0.619364587,3.650872107,1.471038865,-14.52767517,-2.905535034,Ba3BiN
mp-542828,0,-0.746291098,7.364545084,0.018257938,-205.7804322,-5.716123116,Dy5Si4
mp-674503,0,-2.041946953,6.042301978,0.083741357,-63.271101,-3.515061167,Hg2SbF6
mp-30402,0,-0.246023957,10.22534151,0.01377119,-47.89156686,-3.420826204,K(SnAu2)2
mp-560570,7.0042,-3.756447411,3.03551361,0,-168.3850607,-5.612835356,Rb2NaAl6F21
mp-755659,4.5221,-3.040335748,6.579255353,0.001365757,-113.8374157,-7.114838484,DyHO2
mp-8808,0,-0.849354909,7.943621492,0,-145.1060293,-7.255301466,Er2Si5Ru3
mp-636380,1.3429,-2.069801629,4.99642365,0.028230729,-95.92986187,-6.852132991,Li(MoO2)2
mp-974856,0,1.583049573,3.611895637,1.583049573,-9.16125632,-2.29031408,Rb3Re
mp-763007,0.0523,-2.650440461,4.022607578,0.043547417,-118.0425197,-6.557917763,Mn2OF3
mp-754120,0,-3.40974383,7.420028528,0.091827671,-193.0585092,-8.775386783,Dy2Nb2O7
mp-756690,0,-2.137068249,6.676774476,0,-60.24081642,-7.530102053,EuAgO2
mp-568224,0.7026,-1.470714792,6.697683008,0,-215.5699359,-5.389248398,Sm3CuSe6
mp-1133,0,-1.21712768,4.982570681,0,-70.20784996,-7.800872218,V5S4
mp-780098,0.3744,-1.864405738,5.314570586,0.068550441,-82.21973073,-5.872837909,LiCoSnO4
mp-4802,0,-2.709206925,8.570983182,0,-253.2383988,-8.732358579,La4Re6O19
mp-12490,1.5502,-1.079725847,5.630947868,0,-44.58757333,-3.715631111,CsHoCdTe3
mp-675244,2.0484,-2.497786925,6.243294883,0.001525275,-84.80242325,-6.057315946,Yb(NdS2)2
mp-767407,0.7834,-0.939300518,2.529550046,0.09162127,-94.82692653,-3.386675947,Li5SbS
mp-23018,2.4146,-1.861532013,7.980126704,0,-72.200888,-6.016740667,BiSbO4
mp-27336,0.3785,-0.933178257,4.354763847,0,-58.19047179,-2.90952359,CsCuBr3
mp-672972,2.3453,-2.454422245,2.862240113,0.051435144,-360.7360256,-6.937231261,Sn(PO3)3
mp-706588,3.6925,-2.673311732,3.676303923,0.012627088,-568.8743796,-6.772314043,Na3NdV2O8
mp-743178,3.7971,-1.359036304,1.853824887,0.050194699,-142.8872629,-4.762908763,FeH8(ClO2)2
mp-8723,4.6001,-2.411524643,2.787133306,0,-52.43948055,-4.369956713,AsF5
mp-695308,2.6115,-3.438818686,5.372184752,0.016196864,-609.3628356,-8.463372717,CaGdTh(PO4)3
mp-30383,0,-0.44103413,14.8688372,0,-24.50517964,-8.168393213,Hf2Au
mp-754503,0,-2.451086771,5.278218942,0.106401562,-43.51242449,-7.252070748,ZrBrO
mp-675813,2.8666,-4.152062587,8.622274293,0.058186626,-127.8290228,-9.130644483,Sm2Th3O9
mp-686653,3.9503,-3.320195264,2.490838416,0.021519564,-438.1309247,-7.425947877,KMg4Al9(SiO4)9
mp-999390,0,0.092487065,7.791973168,0.117650624,-38.65330249,-9.663325623,NbCr3
mp-760217,0,-3.270714548,3.894850583,0.069211611,-327.7725648,-8.404424738,NaTi4O8
mp-561185,1.6112,-0.876084734,4.711528559,0,-51.57726565,-3.438484377,Cs2Sn2Hg3S8
mp-8096,0,-3.186141022,3.430117358,0.009513195,-46.65924321,-5.832405401,ZrCuF6
mp-850899,0.4514,-2.560479464,3.565696629,0.063038413,-137.5035343,-5.72931393,Mn3OF8
mp-849609,0,-2.445296142,3.12278481,0.075842554,-503.5779741,-7.405558443,Li2Mn3(BO3)3
mp-561176,4.0801,-2.707898987,3.029459857,0,-329.569346,-4.846608029,Sb2POF13
mp-555871,1.3192,-0.964971421,3.430512368,0,-112.2059884,-4.007356728,Na2CuSbS3
mp-6896,4.3414,-0.284569404,2.253126641,0.069045728,-236.2044918,-7.381390368,Rb2NaCo(CN)6
mp-28719,2.5555,-2.224070606,5.801833213,0,-88.60202931,-4.027364969,Ba(AuF4)2
mp-676646,2.3641,-3.778049197,6.329382664,0.088889229,-267.5004204,-9.224152428,Tb2Zr8O19
mp-11372,0,-0.373456155,8.33670386,0.054605398,-18.08942815,-4.522357038,ErSn3
mp-25317,0,-1.572566615,3.517247127,0.03191992,-44.98126279,-4.997918088,Li3(CuO2)2
mp-1407,0,-0.387798281,7.002752778,0,-54.22259014,-4.929326376,Rh3Se8
mp-510623,0,0.050977718,7.833524944,0.050977718,-137.6042213,-8.600263829,Fe3C
mp-561447,4.9997,-2.893946677,2.021184946,0,-808.1604281,-7.482966927,K3AlB8O15
mp-27147,3.3,-1.397772471,3.881670098,0,-245.5972459,-3.069965574,Rb3BiBr6
mp-5908,0,-1.786248042,6.278008061,0,-77.62131055,-6.468442546,CeAsS
mp-541601,5.3482,-2.933911535,3.187091696,0.001754676,-262.1211662,-7.281143505,KPr(PO3)4
mp-777268,0,-1.592596505,7.469334993,0.076706339,-148.7549108,-5.312675385,Na(BiO2)2
mp-504884,0,-0.453494949,4.855922368,0.031877473,-122.0537552,-4.359062686,Cu3AsS3
mp-773205,1.018,-2.512994569,2.453232491,0.089969788,-265.9698081,-7.388050225,LiMnB2O5
mp-542995,0,-0.434800866,7.685775014,0,-246.6225742,-8.504226697,Nb6Fe16Si7
mp-1556,0,-1.087996943,9.908199716,0,-19.65018017,-9.825090085,PuTe
mp-557744,1.9151,-3.171285945,5.279177793,0,-263.2507514,-8.226585983,NaUBO5
mp-3048,0,-1.640435909,11.05301731,0,-50.18341578,-10.03668316,U2SeN2
mp-570451,0,-0.420409787,7.512514537,0.03492849,-63.51114533,-6.351114533,Nb2Te3
mp-558772,1.9236,-1.644025891,3.136085606,0,-287.5715383,-5.13520604,Rb2ZrS4
mp-560045,4.3408,-0.610674381,1.36687792,0.067406619,-417.2329167,-5.215411459,H5CSN2Cl
mp-571189,0.4766,-1.158263082,6.459073862,0,-106.4360284,-5.91311269,NaHf2CuSe5
mp-30219,4.3612,-1.878873473,2.201932252,0,-81.71859086,-3.404941286,KGaCl4
mp-18762,1.1127,-1.50191929,2.730233706,0,-70.56840067,-4.410525042,Na4CoO3
mp-5572,3.004,-2.219232637,6.097342957,0,-248.3924989,-6.209812473,Ho2Te5O13
mp-755141,4.0623,-3.179474531,6.656808233,0.007226315,-54.17438363,-6.771797954,NaHoO2
mp-779087,2.6472,-2.4902109,3.210730964,0.002007365,-258.6093195,-7.183592208,Li3Mn2Fe(BO3)3
mp-31455,0.2438,-0.237911927,8.233617522,0.025051062,-23.18630646,-7.72876882,VSbRu
mp-24051,0,-1.657517911,6.090898149,0,-28.06710513,-4.677850855,ErHCl
mp-976365,0,-0.207528788,9.064637242,0.208071495,-18.3990235,-4.599755875,Nd3Au
mp-1008755,0,0.181258239,4.307642365,0.532381836,-14.49733183,-4.832443943,SrB2
mp-8977,2.6232,-1.307653512,3.312695981,0,-164.4708863,-6.852953595,Ca2PN3
mp-757817,1.1549,-2.719005824,3.156564353,0.107437105,-375.6282816,-7.2236208,Li2Nb(PO4)2
mp-8470,3.1969,-2.971194808,5.018030226,0,-52.91938519,-6.614923149,NaPrO2
mp-556120,1.9874,-1.967079399,4.179881828,0,-67.72859303,-5.644049419,RbTl(SO4)2
mp-758953,4.3765,-0.620835537,1.764661309,0.008483047,-241.3022611,-5.484142297,P2H12BrN7
mp-780492,2.4366,-2.275454975,2.383915645,0.062902446,-259.6805435,-6.333671793,Li4VP6(H4O11)2
mp-6361,3.5174,-3.074574488,4.739118467,,-147.770973,-6.71686241,NaSr3NbO6
mp-555076,5.1719,-3.039779136,3.222451134,0,-169.3577853,-4.704382924,KNaSnF6
mp-765775,1.8559,-2.476453698,3.26498045,0.061431246,-110.5458304,-6.909114402,Li2V2SiGeO10
mp-973004,0,-0.047041519,9.463756358,0.24901563,-34.31876049,-8.579690123,ScRu3
mp-8672,0,-2.999361899,7.020513258,0.058486979,-52.93251907,-7.561788439,La2PdO4
mp-12524,0,-0.032505766,8.488349953,0.095632166,-61.66004933,-6.851116592,Al2W
mp-29314,0.6103,-1.221738952,3.861318752,0,-126.5488615,-4.218295382,RbVBr3
mp-582023,0,-0.526862912,6.494332601,0,-336.0235954,-7.000491571,La21Fe8Sb7C12
mp-5676,0,-0.369442,10.19948896,0,-20.45175038,-6.817250127,MnSbPt
mp-555077,2.3789,-2.065914271,4.865926655,0.000625628,-52.38998032,-4.365831693,Sn2IF3
mp-2120,0,-0.332163883,9.779237199,0,-11.23190058,-3.74396686,HoAg2
mp-721300,5.0985,-2.800139463,2.610651211,0.007847934,-430.1924641,-7.169874401,Ca2B5H2ClO10
mp-583740,0,-1.167898391,6.116073813,0,-188.6374268,-8.574428492,Zr7P4
mp-3541,0,-0.72179577,7.708617475,0,-47.6905104,-5.9613138,CeNiGe2
mp-13542,0.4017,-0.51661424,5.831130505,0,-57.67922825,-4.806602354,ZrGeTe4
mp-760411,2.0926,-1.790905929,7.708103927,0.011114206,-52.48128684,-6.560160855,Bi2CO5
mp-21497,3.1328,-1.941058876,6.610923788,0,-95.05581872,-5.94098867,Pb2SO5
mp-778723,2.7755,-2.448932859,3.246803922,0.004574899,-253.6201735,-7.04500482,Li3MnFe2(BO3)3