id,band_gap,formation_energy_per_atom,density,e_above_hull,energy,energy_per_atom,pretty_formula
mp-2399,0,-0.50860669,9.212362381,0,-7.78828798,-3.89414399,YHg
mp-570404,0,-0.255182401,9.238362512,0,-111.472281,-4.644678373,Ho4CdCo
mp-2379,0,-0.468171583,4.96446228,0,-19.36514342,-6.455047807,CoSi2
mp-1018083,0,-0.138447956,5.227493934,0.179517694,-17.3900603,-4.347515075,CrCdTe2
mp-973143,0,-0.285775065,6.149157161,0.017398208,-11.29411779,-2.823529448,ScZn3
mp-996988,0.1239,-1.074818614,4.73286553,0.046447056,-17.48875106,-4.372187765,LiAgO2
mp-2424,0,-0.306240119,6.967285088,0.001716025,-13.12816637,-2.188027728,LaZn5
mp-21424,0,-0.790371166,8.920832358,0,-69.59832349,-5.799860291,TbNiGe
mp-774708,4.089,-0.82169354,1.910447491,0.042813341,-683.820247,-5.698502058,ZnH12C3S4(N3O2)2
mp-752512,0.1877,-1.840675548,2.782433984,0.056646001,-105.4004399,-4.790929088,Li6CuO4
mp-5292,0,-0.644090911,4.624872992,0,-27.62989664,-5.525979328,Ca(SiNi)2
mp-864975,0,-0.80908968,9.063498987,0,-17.67999949,-4.419999873,Mg2PdPt
mp-505771,4.3382,-1.81197669,1.958202305,0,-418.5424103,-5.813089032,K2NaH5(CO4)2
mp-851090,3.3842,-2.789707023,3.454589443,0.077363879,-259.2627915,-4.629692706,SrLaCl5
mp-17816,1.4133,-1.889787643,2.745538918,0.003379697,-213.0383576,-4.841780855,Na5AsO5
mp-11,0,0,5.302516571,0,-9.29568349,-4.647841745,As
mp-34296,1.5023,-1.847486257,5.165672141,0.048856341,-85.12910626,-6.080650447,Zn(FeO2)2
mp-866096,0,-0.324887644,11.04564056,0,-26.74659389,-6.686648473,HfZnCo2
mp-541557,0,-0.690921743,7.658921962,0,-273.868134,-6.846703351,Lu2Fe3Si5
mp-30925,2.1868,-1.527822924,3.344489914,0.101317889,-69.42072848,-6.942072848,La(NO2)3
mp-16718,0,-0.268983719,3.794004995,0.010415058,-69.45996394,-4.961425996,Al6Tc
mp-11958,0,-0.670233282,6.687757428,0,-35.76032953,-4.470041191,CaSn2Pd
mp-18090,1.0798,-1.550217188,5.276850661,0,-192.8036642,-6.025114507,Ba3TaAs3O
mp-650841,3.3617,-0.770220248,3.748570157,0.010339266,-103.1923075,-2.866452985,GaBr2
mp-571193,0.5601,-0.359632608,4.081047476,0.001513445,-260.7727175,-6.519317938,MnP4
mp-21155,0,-0.49139986,8.341932596,0.089393935,-79.44655578,-6.620546315,DyMnGe
mp-865218,1.9073,-3.658799745,7.805913766,0.096808506,-40.39920951,-8.079841902,YbTiO3
mp-1019786,4.2518,-2.667772262,2.492888528,0,-523.7931506,-6.89201514,K3Zn(BO2)5
mp-1019733,0,-1.425124882,2.989813637,0,-362.8496321,-6.97787754,Eu(NO3)3
mp-779913,1.7291,-2.539194371,4.155439945,0.0464332,-102.7248156,-5.706934201,Fe3OF5
mp-600029,5.4247,-3.277893266,1.840993703,0.01125775,-569.0838563,-7.903942448,SiO2
mp-999193,0,-0.838036819,11.22896956,0,-19.33208875,-4.833022188,SmAu
mp-8727,1.8014,-2.482387098,6.958597215,0,-132.8399055,-6.038177524,Ba4PtO6
mp-560000,0,-3.614258498,5.147757979,0.002166553,-243.4511481,-8.694683859,Ce2Ti2SiO9
mp-22292,0,-0.703369508,7.323398194,0,-41.25475655,-6.875792758,EuCuSb
mp-640712,0,-0.122681414,3.94651231,0,-81.46729667,-2.143876228,Rb8In11
mp-19271,0,-2.540094431,5.82370099,0.080091167,-139.712061,-6.98560305,BaCrO3
mp-780303,1.2772,-2.046997069,4.574142609,0.01404188,-95.50300407,-5.968937754,Li4Fe3SbO8
mp-768972,4.5838,-2.787486997,3.019679508,0.059882526,-162.2840799,-4.773061174,Ba3Y2Cl12
mp-998918,0,-0.165213729,6.842141119,0.155306579,-18.46663378,-4.616658445,TlFeSe2
mp-557810,7.5679,-2.404974192,2.844436571,0,-275.2081103,-4.586801838,BaH6F8
mp-560144,1.6315,-1.063379445,3.435078448,0,-169.777774,-4.244444349,K2RuBr5NO
mp-697075,0,-0.763405535,6.174618798,0,-163.2246939,-5.829453353,Ti3Zn3N
mp-757785,2.0942,-1.61796667,8.879376218,0.029190995,-182.5572332,-5.704913538,Bi12PbO19
mp-981530,0,-0.813061546,9.571385768,0.01510686,-19.9210494,-4.98026235,YbPrPd2
mp-552098,0.3778,-1.268539717,9.181534885,0,-26.08151825,-5.21630365,Bi2SeO2
mp-381,0,-0.638065753,8.440175683,0.014123224,-15.96746779,-7.983733895,SiRu
mp-758886,0,-2.139130946,2.917760741,0.11101648,-519.5596399,-6.185233808,LiCuPO4
mp-13005,0,-0.457894943,7.052871631,0,-61.44201744,-6.144201744,LaCrGe3
mp-779287,2.2372,-3.030434644,7.116756393,0,-96.55115358,-6.89651097,La2HgO4
mp-540626,3.6512,-1.173040776,3.488705319,0.010963847,-198.9365529,-4.736584594,NiH8(IO5)2
mp-769307,4.5006,-3.503387068,5.329261883,0.004772162,-244.6172724,-8.15390908,Ca4Ta2O9
mp-18864,4.388,-2.24875123,4.549659382,0,-86.57722087,-6.184087205,Rb2WO4
mp-945779,0.1885,-0.886534726,7.12736353,0.01589724,-37.07141067,-4.633926334,DyCuTe2
mp-573069,0,-1.874883268,6.796124973,0.030110769,-161.4370711,-5.381235703,Ba2CaTl2(CuO4)2
mp-2573,0,-0.091879867,6.833834602,0.018228148,-24.5526847,-6.138171175,NpAl3
mp-568115,0,-0.812973032,5.761047445,0.031988722,-131.0346911,-8.189668194,Zr5Si3
mp-7295,0.3061,-1.173854689,3.720503928,0,-93.34936571,-6.667811836,RbCr5S8
mp-867153,5.3602,-2.270130469,2.560925261,0,-189.1911582,-6.102940587,Rb2MgP4(HO2)8
mp-560806,0,-0.962100789,4.183259606,0.068775053,-68.0607402,-3.781152233,Zn2In2S5
mp-628637,0,-1.164996409,5.470045013,0,-152.180806,-5.072693534,Cu3BiSe2BrO8
mp-28277,3.0315,-1.48105501,4.163030137,0,-105.7923455,-3.306010798,K2PrI5
mp-684496,0,-2.266444331,3.636171337,0.143778055,-268.7851383,-6.719628457,SbP2O7
mp-971647,0,-1.935475608,4.027472883,0.094993397,-50.0230669,-6.252883363,NaMnO2
mp-867241,0,-0.660022562,9.112036011,0,-20.69621911,-5.174054778,Ac2GePd
mp-23457,3.0408,-0.419057761,2.665694093,0.003799338,-219.5583257,-4.574131785,PBr2N
mp-558958,5.4556,-1.358661083,1.333899752,0.034446653,-177.3824612,-4.927290588,H2O
mp-571634,0,-0.517165434,9.333314213,0.045186564,-45.77185712,-2.86074107,Yb5Pb3
mp-559833,5.261,-3.075285745,3.326227641,0.005256647,-528.5073136,-6.60634142,Na2YC(OF)3
mp-555267,0.5123,-0.446522779,6.280314328,0.031893675,-45.1300286,-2.820626788,CuHgSBr
mp-569582,0,-0.119568041,5.920421648,0,-116.5524147,-4.856350613,La4MgCo
mp-754085,0,-1.091372967,4.386139744,0.103546636,-40.19978428,-4.019978428,Li2BiS2
mp-675230,2.4415,-2.181738529,3.657843799,0.002422146,-43.84156849,-5.480196061,NaLaS2
mp-40668,3.0924,-2.341147162,3.212266409,0.001466928,-156.624787,-6.526032793,NaCoP2HO7
mp-867278,0,-0.14500259,12.20860626,0,-35.39976893,-8.849942233,DyPaTc2
mp-743676,0.8914,-1.196339967,2.086194987,0.258604904,-247.9109884,-5.389369312,VH10S2(NO4)2
mp-974386,0,0.086210728,10.02292957,0.705331102,-23.11652098,-5.779130245,Rh3F
mp-1008635,0,0.547075126,12.46021477,0.669391485,-21.09094945,-10.54547473,WC
mp-21364,0,-0.812761296,8.424990498,0,-42.44816546,-5.306020683,HoCuAs2
mp-1016823,0,-2.480762836,6.792562116,0.234014375,-31.63039962,-6.326079924,BaGeO3
mp-555438,6.4405,-4.104505418,4.733524185,0.019209433,-605.3232464,-5.820415831,Ba3AlF9
mp-867801,0,-0.553845067,7.028083012,0.021768659,-18.90663435,-4.726658588,La2AgSn
mp-1019777,4.2027,-3.170608976,4.321132699,0,-384.9349117,-7.402594456,K2La2B2O7
mp-755756,1.0627,-3.221537876,5.722528383,0,-40.63770319,-8.127540638,Y2TeO2
mp-22600,0,-1.282028335,3.455633447,0,-144.9093661,-7.245468307,Sc3P2
mp-32028,0.4353,-2.409998221,2.519616641,0.042726248,-241.6090571,-7.106148739,Mn(PO3)4
mp-555069,0.1296,-1.840555554,5.855321167,0.017643835,-90.62172787,-5.663857992,Tb2SnS5
mp-722766,2.8975,-1.317802343,2.823866771,0.049686904,-536.0128911,-4.466774092,CaHgH16(BrO2)4
mp-758945,0.2156,-1.753452214,2.592623653,0.080231586,-424.5802184,-4.824775209,Li5CuHO4
mp-850930,4.3429,-3.069912893,2.954404474,0.04645102,-383.4742701,-5.32603153,Li3MnF5
mp-555958,5.4511,-2.877130431,3.102126582,0,-924.5667558,-7.004293604,Ba2Li3(PO3)7
mp-19207,1.5183,-2.54732352,6.692351092,0.080877804,-136.0889071,-6.804445352,Sr2CoWO6
mp-760136,0,-2.403203973,3.278505548,0.096575553,-184.3784265,-6.584943802,Li4TiCu3(PO4)4
mp-8424,0,-2.227343694,3.04455375,0.070497846,-78.81610921,-5.254407281,Li8PrO6
mp-722188,4.8688,-2.539887571,2.303952326,0.018504991,-743.3191184,-6.407923434,NaCa4Si8H16O28F
mp-27298,0,-0.80098848,6.140490281,0,-155.6569004,-3.706116675,Ca11Bi10
mp-29726,0,-1.032746455,8.228015797,0,-44.01451835,-7.335753058,LaSi2Rh3
mp-1986,0.6311,-1.793698857,5.446831625,0.006981823,-9.08663973,-4.543319865,ZnO
mp-545603,1.6618,-2.462456034,7.141715178,0.008695321,-61.85782996,-6.185782996,Ba2BiSbO6
mp-560005,1.8316,-1.093427452,6.360009844,0,-267.9926856,-6.699817139,TlRe3(S2Cl)2
mp-29630,0,-0.320455924,2.357757905,0.008622508,-50.97080856,-2.831711587,Li7Ge2
mp-559385,3.7325,-3.781022976,7.747897386,0.001078545,-216.8519941,-7.744714075,SrHo2O4
mp-867474,0,-0.486054164,5.218907032,0,-20.06019066,-5.015047665,Li2EuSn
mp-628726,5.2875,-2.248301626,2.08274023,0.008493778,-87.88477084,-3.994762311,Sr(AlCl4)2
mp-762694,1.6201,-2.529898478,3.851417667,0.05255203,-126.5009898,-7.027832766,Li3Ti2Fe3O10
mp-28229,0.2126,-0.163213399,8.069003411,0.002321614,-26.16271892,-3.737531274,Bi4Te3
mp-20450,0.1642,-0.655364349,5.212715207,0,-187.0015219,-7.79173008,YCrB4
mp-796,0,-0.163106711,7.15729647,0.049796993,-69.47989507,-8.684986884,Nb3Al
mp-770811,4.5594,-2.482905159,3.116724455,0.060826862,-308.1727236,-7.003925537,Si2As2O7
mp-23858,1.7386,-0.924313633,3.244048655,0.065423046,-145.4098068,-4.846993559,H8PtN2(ClO)2
mp-622209,0,-0.401824725,4.03433236,0,-74.51945968,-4.65746623,Al3Ni
mp-1657,0,-0.661718643,10.12954589,0,-45.14847129,-7.524745215,UAs2
mp-15391,2.1185,-1.89057972,3.881593154,0,-97.06778877,-4.853389439,Na4TeO5
mp-766967,2.8647,-2.898123828,3.011903695,0.04337325,-409.3500641,-7.580556742,Li2Mn3(Si3O8)2
mp-554882,0.3957,-2.009295154,5.428193817,0,-254.816621,-5.791286841,DyCuTe2ClO6
mp-2306,0,-0.131540389,3.325810933,0.008969846,-10.26575797,-2.566439493,LaMg3
mp-30203,0,-0.599209645,4.921318823,0.010796748,-210.0064519,-5.833512552,Sc6AgTe2
mp-865828,0,-0.351440223,13.13395963,0,-30.96399794,-7.740999485,YbPaRu2
mp-767688,0.1866,-2.62019665,2.894289856,0.095141472,-158.291669,-7.195075865,NaNdPCO7
mp-510370,0,-3.059577429,4.193239919,0,-179.2091327,-4.978031463,CsAlCuF6
mp-531175,0.6883,-2.020632407,6.251756522,0.03488428,-304.2092741,-5.432308467,Cd(GaO2)2
mp-777779,0.3892,-1.848383219,4.80058972,0.047745185,-112.2221818,-5.611109089,Li4Mn(TeO4)3
mp-977384,0,-0.643674747,9.304990173,0,-23.96671882,-5.991679705,ZnSiRh2
mp-755311,4.061,-3.257562888,7.139402571,0,-27.34735228,-6.83683807,NaLuO2
mp-12899,0,-0.828344347,7.513613304,0.001983968,-23.32013529,-5.830033823,HoSi
mp-865341,0,-0.28443018,12.21506792,0,-24.06262652,-6.01565663,Tm2InOs
mp-781961,2.6724,-2.159183134,2.626838546,0.08130903,-256.5794059,-6.414485147,LiCrPH2O5
mp-680683,5.4514,-2.848409755,2.386871227,0,-754.1351047,-7.855574008,CsB9O14
mp-29320,2.6201,-1.430853322,5.190835677,0.009606545,-127.7966124,-5.32485885,Te3SeO8
mp-23494,2.313,-1.827462046,8.690230901,0.007607986,-199.5106179,-6.0457763,Ti(Bi3O5)4
mp-604008,0,-0.604844543,7.628826857,0,-166.1038333,-6.920993053,CeAlRu
mp-30725,0,-0.402318617,11.00166327,0.005569612,-8.2817209,-2.760573633,YHg2
mp-29839,2.8442,-1.597040002,7.12736447,0,-180.777541,-5.649298157,Bi2SeO5
mp-686748,4.4653,-3.077757292,2.728969929,0.001272151,-413.5330694,-6.892217823,Ca2Al2Si(HO4)2
mp-770879,1.4464,-2.322135021,3.495601465,0.061848443,-251.3597401,-6.982215003,Fe5Co(PO4)6
mp-625175,5.4045,-0.943893249,1.971309806,0.007426495,-162.4007046,-4.511130684,H3ClO5
mp-28865,0,-0.823819457,1.975858195,0,-45.54903158,-3.036602105,Os(SCl6)2
mp-763328,0.6344,-2.016251428,3.924377242,0.047856522,-73.05646687,-4.566029179,Co4OF11
mp-18749,3.266,-1.739977118,3.855063085,0,-68.84839698,-5.737366415,NiSO4
mp-23485,1.2206,-0.30283041,5.456796871,0,-14.15708743,-2.022441061,Ag2HgI4
mp-662815,0.4111,-1.015144636,3.602876835,0.029609007,-217.1056389,-5.169181879,Mn(GaS2)2
mp-7303,0,-0.265944074,8.842371362,0,-16.75078111,-2.093847639,ErCd3
mp-989606,1.81,-0.751282379,5.509970833,0,-168.2399218,-8.411996091,CaReN3
mp-1001012,0.5765,-1.96874912,3.207383144,0.01097963,-83.15363784,-5.93954556,Sc2ZnS4
mp-770382,1.0554,-2.575145519,3.425100368,0.064079796,-259.7787168,-7.216075467,Li3V3(BO5)2
mp-753708,0.0529,-3.442221866,3.913720715,0.044579704,-95.48303311,-7.956919426,TiOF
mp-570254,0,-0.473952954,9.346995108,0,-197.8861033,-8.245254302,ThBC
mp-1019806,5.1751,-2.971796469,2.982923487,0,-525.9342698,-6.920187761,KMg6P7O24
mp-559961,3.3195,-1.250783913,6.433405989,0,-135.5381836,-4.840649415,Tl2SeO4
mp-867422,0,-0.630116032,12.89466806,0,-16.89679967,-4.224199918,AcPbAu2
mp-680674,2.5966,-1.26577315,4.333345445,0.000998216,-85.72923429,-3.061758368,Cs3Bi2Br9
mp-956096,0,-0.33635833,11.31387507,0.013067052,-111.5318582,-9.294321513,HfFe2
mp-20461,0.1968,-2.128683666,7.891530699,0.00045867,-57.89745899,-5.789745899,BaPbO3
mp-567956,1.637,-0.840415785,2.488902141,0.085017797,-135.5576135,-3.388940337,GaSe2NCl6
mp-974662,0,0.609138848,2.400168717,0.609138848,-10.79344694,-1.349180868,Rb3Pr
mp-6167,3.1963,-3.387837196,6.139489493,,-76.20726453,-7.620726453,Ba2NdNbO6
mp-1412,0,-0.37789907,6.204948373,0,-58.66064912,-7.33258114,Ti3Sb
mp-8842,0,-0.786879977,4.85472265,0,-59.86557537,-4.988797948,CaSiPd
mp-1448,0,-0.590284716,6.683010537,0,-17.95266731,-4.488166828,NdGa
mp-605821,1.2106,-1.690698626,5.815852778,0.042121653,-188.6145427,-6.736233667,Nd3SeBrN2
mp-989195,3.9172,-3.282828517,3.155165039,0.072701056,-43.32257755,-7.220429592,ScClO
mp-3574,0,-0.127811832,6.678835785,0.04215289,-21.61718431,-5.404296078,MnAlCu2
mp-3277,4.2651,-2.153320221,3.437811037,0,-41.15195043,-6.858658405,BAsO4
mp-768317,4.5469,-3.836461367,6.434243947,0,-265.8398874,-8.307496482,Dy2SiO5
mp-17784,2.8697,-3.070305838,3.968214787,0,-240.8667641,-7.527086377,CaTiGeO5
mp-5618,3.0413,-2.303523949,3.799747228,0,-67.42802319,-6.12982029,Mg2As2O7
mp-29416,1.5334,-1.579554922,4.72835166,0.010992246,-329.2134648,-5.143960388,Pr5C2Br9
mp-557004,5.5806,-3.275483379,1.758123122,0.013667637,-284.4551722,-7.901532561,SiO2
mp-600449,0,-0.609059295,8.545911305,0,-38.79133158,-4.848916448,DyCuSb2
mp-23914,4.9878,-1.573894897,1.676788097,0.019001182,-101.7971207,-4.847481937,CaH12(ClO3)2
mp-861657,0,-0.187359436,3.676355876,0.004116988,-13.09716768,-3.27429192,Li2PrAl
mp-752953,0,-1.484100692,5.532623013,0.119997944,-69.00918925,-8.626148656,ZrTi2O
mp-744625,3.8247,-0.989336312,1.869228331,0,-260.805952,-4.829739852,ZnCrH15N5Cl4F
mp-9702,2.0162,-2.604195658,3.754218838,0,-101.3065837,-6.331661483,Sr3BPO3
mp-504928,0,-0.209073941,6.1038002,0.051914109,-21.17555224,-3.529258707,NaCu3Te2
mp-720279,3.3168,-1.496683939,2.119300538,0.083292325,-517.1799268,-5.277346192,Na4H20RuS4(NO9)2
mp-560824,1.0963,-3.028460395,6.429716115,0,-267.8186996,-8.369334363,La6B(NO2)3
mp-2918,2.6469,-2.738038363,4.865677528,8.80E-05,-59.94332051,-7.492915064,YCuO2
mp-772403,0.9857,-2.832516107,5.062321595,0.02974,-205.6444077,-8.568516986,NbVO4
mp-867570,2.4295,-1.829520019,4.076915518,0,-214.3104739,-4.870692589,Rb4Sb2O5
mp-850747,3.2538,-2.33529572,3.21047596,0.064453333,-375.7056854,-6.709030097,LiFe2P2HO8
mp-865132,0.1597,-2.498654256,4.464723596,0.043622963,-194.3434199,-6.940836426,Li4Ti3Fe3(SbO8)2
mp-863665,0,-0.452931606,10.35459847,0,-24.26777037,-6.066942593,Pm2CuIr
mp-7905,4.7684,-2.870498641,2.354443185,0.418652375,-44.97928694,-7.496547823,SiO2
mp-776021,0.0433,-1.837256727,4.92307631,0.070867487,-108.648599,-5.432429952,Li4Sb(TeO4)3
mp-707424,4.7445,-1.682432445,2.448354034,0,-348.1512213,-5.439862833,Al2H12(SeO5)3
mp-22502,0,-0.212391054,10.33054098,0.090910673,-45.35600213,-9.071200426,Mn3IrN
mp-11737,4.7741,-2.690627779,2.319083368,0,-108.3570371,-6.019835394,Li4SiO4
mp-976762,0,0.187107033,9.831614052,0.187107033,-13.51584907,-3.378962268,NiAg3
mp-770548,0,-2.156797662,2.788184621,0.043998565,-391.5185616,-6.750320027,Na6Cr2P(CO4)4
mp-675464,0.004,-1.791978689,6.691945384,0.07723662,-71.73592523,-5.123994659,CdIn2O4
mp-9405,3.8394,-2.068237897,2.848201725,0.006925538,-87.52170869,-4.862317149,K3SeO4F
mp-23648,5.2612,-3.138538703,2.255665069,0,-318.6187501,-6.926494568,Li4Al3Si3ClO12
mp-631467,0,0.712271937,4.502756413,0.712271937,-14.48290543,-3.620726358,BeInSi2
mp-754095,0,-2.153454622,4.015428312,0.060289364,-69.36131219,-4.335082012,Li3Cu4F9
mp-770847,1.3023,-2.702194179,6.435595642,0.07948556,-228.5379014,-6.348275038,La2Cd2O5
mp-22958,3.8455,-1.065205625,3.009050273,0,-20.7446228,-4.14892456,KBrO3
mp-997011,0.439,-0.263399279,3.794553466,0.310312314,-32.6947091,-4.086838638,CuBrO2
mp-757205,2.7166,-4.235206796,8.476430453,0.306610188,-189.6318211,-9.481591053,Y2Th5O13
mp-23002,0,-2.374077387,4.141586262,0.017888213,-41.74957897,-6.958263162,TiBrO
mp-755891,4.5129,-1.811145562,2.683053426,0.036377502,-62.09255059,-5.174379216,CsLiH4SO5
mp-570972,1.0408,-1.733281744,3.427685689,0.015254884,-141.4266776,-5.238025096,K2Mn(NbCl3)6
mp-12729,0.0711,-2.894959257,7.210132231,0,-71.90146843,-7.190146843,Ba2TmRuO6
mp-977583,0,-0.12905924,15.7785904,0.066847844,-33.09271908,-8.27317977,LiNpIr2
mp-704227,0.2415,-2.44824117,3.218610753,0.041629716,-365.7930502,-7.46516429,Mn9(PO4)8
mp-541474,0.0382,-1.167673433,4.323770775,0,-138.6185639,-3.850515665,Pt(OF3)2
mp-5127,1.4342,-1.44179702,4.094964333,0,-58.23628469,-4.853023724,LiCuO
mp-542622,4.1559,-2.149118955,2.029230367,0.043824528,-299.457569,-6.80585384,P4O7
mp-764063,0.6812,-2.24851808,4.195778819,0.002189214,-64.83285727,-5.402738106,Li2CoO2F
mp-11977,0,-0.432091537,8.924183727,0,-20.97453267,-3.495755445,LiSnAu
mp-23609,4.4852,-2.580685089,3.744777772,0.000738297,-337.4037144,-7.029244051,Zn3B7ClO13
mp-772583,3.2671,-2.780120083,3.894504973,0.082848677,-400.734218,-7.155968179,Ca3W2O9
mp-567846,0,-0.602249249,14.45138382,0,-347.0813021,-10.84629069,Ta3P
mp-730,1.0645,-0.688941781,8.957967816,0,-75.77297176,-6.314414313,P2Pt
mp-777233,6.6724,-4.303403177,4.414061816,0.059667752,-182.4742029,-6.516935816,BaYF5
mp-7938,0.821,-1.495804887,3.965988299,0.010235814,-48.27106022,-6.033882528,KNbS2
mp-11544,0,-0.561750306,9.84434722,0,-33.77759427,-2.814799523,Yb2Pb
mp-540138,1.2695,-2.41778716,3.614161707,0.004528311,-203.190894,-7.256817641,MoPO5
mp-762239,1.2569,-1.702947186,2.386504201,0.093592827,-133.2287242,-7.401595788,Mn(CO3)2
mp-756317,1.3461,-2.561971129,6.737777137,0.085337003,-85.27871096,-6.091336497,Al2HgO4
mp-505292,0,-0.601620489,7.758353603,0,-55.801266,-5.072842364,Nd3(CuGe)4
mp-569603,0.2397,-0.763458767,3.719032315,0,-233.3611703,-5.303662961,BaCa4(CuN2)2
mp-753677,2.5678,-1.230332011,3.827713197,0.049938991,-57.25548514,-4.08967751,Li3BiS3
mp-23546,0,-1.04437706,4.329654423,0,-32.48394826,-3.609327584,Na2UI6
mp-974682,1.3537,-0.278997847,3.224052037,0,-46.57066332,-2.910666458,RbGaH2
mp-19979,0,-0.693215759,7.613733052,0,-29.1946757,-5.83893514,La(NiGe)2
mp-558411,2.7028,-3.871436248,5.255175518,0.079668612,-204.4010346,-9.290956117,Y2Zr2O7
mp-865259,0,-0.335445195,13.27922113,0,-13.66182783,-1.707728479,HoHg3
mp-631895,0,0.860128565,15.86961318,0.869817115,-34.64004078,-8.660010195,FePbW2
mp-19170,0,-2.313992568,7.140208598,0.003898185,-65.2942927,-6.52942927,PrNiO3
mp-779738,2.0581,-2.547673835,10.3873784,0.003703564,-422.2254749,-10.55563687,Hf2N2O
mp-1023,0,-0.100691786,9.217538417,0,-263.8783426,-6.944166909,Ho2Co17
mp-557962,2.3926,-1.591057367,2.703656829,0.001170764,-120.8406097,-5.035025402,SrLiBS3
mp-1086,0,-0.578120219,14.23427173,0,-22.23717116,-11.11858558,TaC
mp-2432,0,-0.114764957,1.731927611,0,-22.22103834,-1.851753195,CaMg2
mp-776110,2.554,-2.606444487,4.257681822,0.026084498,-421.7541914,-7.029236524,SiSnO3
mp-23827,3.8686,-0.977324606,3.378297267,0,-73.69673213,-3.509368197,Sr7(H6Cl)2
mp-554191,1.8662,-3.040508701,5.735266426,0,-104.3188419,-7.45134585,Na2UO4
mp-777443,0,-2.667710952,3.074800655,0.034861774,-126.2264266,-4.675052838,Li2FeF6
mp-764506,1.4032,-2.339741881,3.208706184,0.07802735,-307.0096431,-7.139759142,Li3Fe8(BO3)8
mp-865000,0,-0.974457324,14.56517942,0.017741085,-37.91224794,-9.478061985,HfScIr2
mp-556553,5.1327,-3.194381445,2.498919252,0.094769571,-93.84516753,-7.820430627,SiO2
mp-673673,0,-2.00919958,5.671370153,0.368191339,-54.30013893,-6.787517366,NdO3
mp-22893,2.3871,-0.67444125,5.357292588,0.000914413,-8.76291416,-2.920971387,PbI2
mp-644418,3.56,-2.043570055,2.305117636,0.015879213,-95.97779738,-5.998612336,CaH2CClO3