id,band_gap,formation_energy_per_atom,density,e_above_hull,energy,energy_per_atom,pretty_formula
mp-772771,4.5619999999999985,-3.3770284319500004,5.238613875518958,0.02307222191998548,-415.86213019999997,-8.317242604,La4(B2O5)3
mp-556837,2.7409000000000003,-1.2027554635613893,2.2481495517044503,0.0,-200.89661383,-4.185346121458333,AgAs(S8F3)2
mp-30002,3.8334,-1.4440381304807686,4.569537494660857,0.0,-135.77596243,-5.2221524011538465,Sc(IO3)3
mp-542076,,,,,,,
mp-761753,,,,,,,
mp-849952,1.6864,-2.3217454573809517,3.200779084656558,0.08228611545634834,-302.55262762,-7.2036339909523806,LiFe4(BO3)4
mp-773610,,,,,,,
mp-600024,5.75,-3.2596201045833326,1.6445432346871698,0.018377564583332173,-758.194621,-7.897860635416666,SiO2
mp-619456,,,,,,,
mp-849355,,,,,,,
mp-622278,2.7395,-2.082228488333333,4.945178521088134,0.0,-320.97372182,-6.6869525379166666,TlV2SbO8
mp-755376,3.033,-3.047171315648148,7.459795250204677,0.0009786543518517377,-195.53005555,-7.241853909259259,Er2TeO6
mp-677431,1.5699999999999998,-3.003613215083333,4.452426180332508,0.029299273749998637,-309.69073631,-7.742268407749998,Na3SrTiNb3O12
mp-540469,2.9046,-2.3914289643530027,3.5590466524231643,0.04912009356521718,-155.61612528,-6.765918490434783,Li2Co3(P2O7)2
mp-634,1.7039000000000002,-0.4554408032291668,6.965133639714787,0.0038231983333334436,-14.06250148,-2.343750246666666,HgS
mp-850251,1.7662,-3.300995077458332,3.5394927133501675,0.08176106658332039,-253.37741780000002,-8.445913926666666,Na2Ti9O19
mp-989577,4.2919,-2.6666839943806666,6.788693866840595,0.0019382553888869227,-44.85045936,-4.485045936000001,LiTl2GaF6
mp-776914,,,,,,,
mp-662919,1.3687999999999998,-1.7509711096827505,3.7496176161744583,0.2677539888359357,-322.37708296,-4.029713537,SbTe(SeF3)2
mp-757541,3.139,-2.4696942911904762,5.442182680730717,0.0856495067857157,-545.87102162,-6.4984645430952375,LiSiBiO4
mp-767643,,,,,,,
mp-22255,1.1743,-0.7017366743749998,4.9222621550934935,0.0,-25.65153272,-3.20644159,RbInTe2
mp-561134,0.6423999999999994,-0.4988529320312503,5.2902615912640485,0.0891016321875,-55.24483986,-3.45280249125,Sn2SbS2I3
mp-767327,,,,,,,
mp-566135,,,,,,,
mp-769870,1.1003000000000007,-1.9669978886309525,4.985639423921665,0.046403240178571885,-168.49616884,-6.0177203157142864,Li4Fe3Sb5O16
mp-770390,1.5539,-1.7460153145833333,2.406003638520768,0.019878395241229363,-490.98391063,-6.460314613552632,Li2Cr4O13
mp-28281,1.8097,-0.4757713317949999,3.596958777824431,0.0,-117.15846673,-3.6612020853125,H4I3N
mp-621864,,,,,,,
mp-2970,2.8102,-2.0295572838888893,2.9917197096241224,0.0,-90.23016216,-5.012786786666667,Na4GeO4
mp-604429,1.891,-1.8244896465565383,3.0313280334229287,0.0,-151.7815612,-5.837752353846153,NaFe3H6(SO7)2
mp-4604,3.0112,-0.9305892629113888,2.3312483832348208,0.0,-523.37420839,-5.451814670729167,Li7VN4
mp-763798,,,,,,,
mp-1247,0.4529999999999994,-0.3809891641666662,10.568844098845217,0.0,-72.95758833,-6.079799027499999,Sb2Ir
mp-761549,3.3342000000000005,-2.296939954407609,3.2440529843628583,0.34742146392858153,-95.72861318,-6.8377580842857135,LiMnPO4
mp-540260,,,,,,,
mp-554889,2.0385,-1.1422041207291669,4.003920548897112,0.001298796190476903,-168.40460912,-3.508429356666667,ZnS
mp-631621,2.4006,-1.8935978934999995,7.052775519792492,0.03057016687498937,-252.48769359,-6.31219233975,VBi(PbO3)2
mp-622501,,,,,,,
mp-555528,4.9839,-3.442443373064515,3.299103810774588,0.0020479103763424433,-246.42896290000002,-7.949321383870967,Ca2Th(Si2O5)4
mp-762000,,,,,,,
mp-653429,0.9421000000000002,-1.9349278834088677,3.9473102512247067,0.0,-289.90796889,-6.902570687857143,Mn7FeCl3O10
mp-767695,,,,,,,
mp-699437,4.7868,-2.2032564736014284,2.1583517272211843,0.034209445000000116,-190.44748718,-5.951483974375,KP(HO2)2
mp-25059,,,,,,,
mp-626564,3.7376,-1.4614529874229627,1.6831310016085121,0.03239501476851992,-271.50226933,-5.027819802407407,Ca(H8O5)2
mp-541605,,,,,,,
mp-765548,,,,,,,
mp-28529,2.2777,-1.2047809486000003,3.5357909988982366,0.0,-59.18706816,-2.959353408,KInBr3
mp-555717,0.3024,-2.480451681229168,6.0545683487849375,0.0,-160.16118638,-6.673382765833334,K2Nd2IrO7
mp-626271,3.5407,-1.4604760230402458,1.931561363006176,0.03801491074077834,-270.82955029,-5.015362042407407,Sr(H8O5)2
mp-770238,,,,,,,
mp-561864,,,,,,,
mp-780217,1.992,-1.8164041909722224,2.765219334181296,0.09310205020833616,-112.48235762,-4.686764900833333,Li7CuO4
mp-776435,1.1275000000000004,-3.0443050469760013,6.168317759579356,0.04444214456850837,-177.98555322,-8.899277661000001,LaTiNO2
mp-754823,1.4340999999999997,-2.751571438125,9.90356782793056,0.09954603015625096,-26.42669441,-6.6066736025,ErTlO2
mp-556867,4.4301,-3.1535891889060155,3.2885518781184286,0.00913916381578428,-570.62174187,-7.508180814078948,K2PrZr(PO4)3
mp-760251,0.5228999999999999,-2.3638224471577387,2.644175835560206,0.0334392237500003,-151.2715041,-6.302979337499999,Na2CuP2O7
mp-997003,2.7497000000000003,-2.570897118125,7.688501116542205,0.019579535364576017,-53.96961611,-6.74620201375,LaAuO2
mp-679987,1.6878,-1.2427273234692862,2.1715026073583408,0.0,-372.56307692,-4.6570384615,NbP2S2Cl5
mp-621930,3.978,-0.4648952517392483,3.058888789916845,0.00900707566666803,-423.5335241,-7.058892068333334,Cs2SrN12
mp-25008,,,,,,,
mp-620924,,,,,,,
mp-771996,1.1775000000000002,-1.959668232619048,4.426315095391669,0.06784901183036053,-363.51292018,-6.491302146071428,Li3Mg2Fe19O32
mp-779689,3.7337,-0.5212161645600002,0.7439522326783061,0.021907713749999225,-79.02618732,-4.9391367075,H3N
mp-7604,3.5817,-2.7670617958499997,3.0884052296386098,0.031655253839285365,-36.37424291,-5.196320415714285,Mg3NF3
mp-779934,,,,,,,
mp-752798,1.8398000000000003,-4.225999718055555,8.980019117152288,0.005384707777778885,-84.26879593,-9.363199547777775,CeTh2O6
mp-764812,,,,,,,
mp-20606,1.3467000000000002,-1.5053119626250009,5.175240361522398,0.0036288864687490366,-198.88726921,-4.97218173025,Tb3In5S12
mp-780859,0.9772000000000004,-2.815301134484125,3.23100346273305,0.03250790731484088,-277.82821992,-7.717450553333332,Ti3V2Ni(PO4)6
mp-761495,4.5274,-2.4785300244799493,2.7184589862605457,0.051092319526323315,-508.50746817,-6.690887739078947,Li2Ni(PO3)4
mp-985610,1.6807999999999998,-1.4833893835416667,3.4942022863162183,0.13517830921874996,-102.89613729,-6.431008580625,NaAg(CO2)2
mp-24452,6.3796,-2.007256255788304,1.9869000872169305,0.0015141695089280205,-188.20042560000002,-5.8812633000000005,CaP2H6O7
mp-768071,0.3482000000000003,-1.2150278370319876,4.200648110695541,1.0171723517589362,-351.46880688,-6.276228694285713,Li5Mn17(SiO16)2
mp-10776,1.0116,-0.9623089849772722,3.0349256087572902,0.0,-46.95344703,-4.268495184545454,K2Sn(AsS3)2
mp-4875,3.2909,-3.704701922500001,8.577403160190059,0.0,-130.28954586,-10.857462155,GdTaO4
mp-6442,5.3198,-3.253794249322916,2.289480979350289,0.0,-243.73084796,-7.61658899875,LiAl(Si2O5)2
mp-29558,2.3000000000000003,-1.6706427922825,7.652897204597916,0.008405470562496298,-86.52180866,-5.40761304125,Bi3ClO4
mp-761825,1.3945999999999996,-1.5800220103921558,5.280612760632506,0.00144000730392424,-93.27618503,-5.486834413529412,LiSb(TeO4)3
mp-566590,,,,,,,
mp-776172,0.3571999999999997,-2.064925753249999,4.636976943573252,0.11751267440909707,-123.62563069,-6.1812815345,AlCuO3
mp-1018100,0.9179000000000004,-0.15120287500000051,4.079590012517318,0.008283527499999721,-16.35396233,-4.0884905825,AlSb
mp-763179,,,,,,,
mp-768572,4.1240000000000006,-3.522145591583333,3.3294360464427086,0.08376653599999884,-156.79650175,-7.8398250875,YAl3O6
mp-556609,2.2759000000000005,-0.8741481628892863,2.6159206939674142,0.0,-91.29078217,-4.5645391085,KSb(PS3)2
mp-764357,1.7873,-3.010407485275,3.6225599555646175,0.05047276000000078,-150.69716508,-6.279048544999998,V2OF5
mp-722397,5.4433,-1.7824696099102382,1.8037384855892604,0.02764226876235565,-288.69367518,-5.5518014457692315,MgP2H12O11
mp-27849,0.5597000000000001,-1.5077636457933323,3.93958896799358,0.0,-44.01548501,-7.335914168333333,TiBrN
mp-706235,3.0254000000000003,-2.5630209908749992,3.8459663496149936,0.0,-528.95817455,-6.611977181875,NaCa2V3Zn2O12
mp-559549,1.8387,-3.1153582389021746,4.691534345536163,0.007283038949280395,-386.00310345,-8.391371814130435,K2LaNb5O15
mp-23763,2.319,-1.0548635225458824,2.3015467800570164,0.0,-71.27091839,-4.192406964117647,SnH8(NCl3)2
mp-24887,,,,,,,
mp-510559,,,,,,,
mp-28252,2.5334,-2.0179306821666665,4.275594341104917,0.0038115251666690493,-294.81565263,-4.9135942105,Ba5(GaS4)2
mp-693340,4.1775,-2.2676675101214285,2.4695304650547527,0.01901818457029769,-410.29244144,-6.4108193975,Al4Zn4P8H13N3O32
mp-759312,5.6661,-2.0819338954389743,1.7402431263150973,0.005431693525639325,-268.04940281,-5.154796207884616,MgSiH12(OF)6
mp-705120,,,,,,,
mp-565594,,,,,,,
mp-559872,5.6041,-3.2650701341666664,2.365425330294613,0.012927534999999324,-284.51918394,-7.903310665,SiO2
mp-767143,,,,,,,
mp-773164,0.9836,-3.0588663521590918,6.637133710812054,0.159039415909092,-212.64028995,-9.665467725,Gd2V2O7
mp-31776,,,,,,,
mp-30119,3.3566000000000003,-2.0141456054741385,4.5205243298294215,0.0,-161.76216758,-5.055067736875,Cs3AsO4
mp-17889,5.0468,-2.6642194966642863,2.5230316326188933,0.0040564579444462,-196.29796842,-6.543265614,KNa2(PO3)3
mp-763827,,,,,,,
mp-759883,2.9753,-2.222511730813334,8.562737873523941,0.009391136666666357,-32.44033435,-5.4067223916666665,BiOF
mp-559135,5.229,-1.9288257163417333,2.161401845986424,0.00459232893333006,-272.50768697,-5.4501537394,Na2MgH8(SO6)2
mp-773455,2.6054000000000004,-2.2681446386249986,3.0835790310259337,0.0,-284.77644795,-7.119411198749999,V2SnO7
mp-555980,4.8081999999999985,-2.6983402879603164,3.2562523944301933,0.0,-621.08891822,-6.900987980222223,Ba2Zn3(PO3)10
mp-772329,,,,,,,
mp-568802,1.7641,-0.3964260164205357,4.480745913728217,0.0025541137500022515,-81.52623216,-4.076311608,KBi(PSe3)2
mp-570194,5.6037,-0.44962607096605983,1.076707358648957,0.012095204545454765,-369.77619272,-4.20200219,Ca(BH4)2
mp-558828,2.3377000000000003,-2.889858145033333,3.645472378689657,0.0,-155.73904177,-7.7869520885000005,K3Nb3(BO6)2
mp-27703,1.9953,-1.4944713904166662,5.104885328200822,0.0,-26.23537982,-4.372563303333333,InBrO
mp-779966,,,,,,,
mp-571184,1.6912,-0.6223426735227274,4.667449010979114,0.0,-439.52293823,-4.994578843522729,CuMo3Br7
mp-775437,1.1640000000000001,-2.5861725615126043,3.224582501035024,0.0,-253.11374849,-7.444522014411764,V3P6WO24
mp-37829,1.3176999999999994,-1.8623122974107136,6.587553661039354,0.0,-81.08135243,-5.791525173571428,La5TlSe8
mp-541186,,,,,,,
mp-14482,1.6388999999999998,-3.099444322028985,4.8215465823340455,0.025164223835405508,-201.5151784,-8.761529495652173,SrNb6O16
mp-755116,2.049200000000001,-1.5304120003409096,9.351048897206569,0.0,-128.39874633,-5.836306651363636,In2Pt2O7
mp-759767,0.6400999999999999,-2.365512400259353,2.612271318131695,0.04768835678571382,-374.30459972,-6.6840107092857135,LiCu(PO3)3
mp-776444,3.1523000000000003,-3.045822876206845,2.7080754258146005,0.015359168177075944,-483.30327964,-7.551613744375,KLiTi2(PO5)2
mp-559078,,,,,,,
mp-989594,1.0971000000000002,-0.20144346625820653,3.792704118567377,0.07193200700000091,-27.5839723,-2.75839723,Cs2NaGaH6
mp-675199,2.0519,-2.1007786578125,3.7878608060163272,0.00882552625000077,-42.88443303,-5.36055412875,NaPrS2
mp-6592,2.1166,-1.188368338534667,3.0883932795378244,0.0099103137275538,-367.56977273,-6.126162878833332,K2Pt(NO2)4
mp-777804,3.4886,-2.4890957939877776,2.7972043858525306,0.4314929516666695,-226.09596154,-4.710332532083333,LiFeF4
mp-771572,,,,,,,
mp-9726,7.5245,-3.9402283602377786,3.671388926690663,0.0,-139.00985926,-5.792077469166667,SrBeF4
mp-733656,,,,,,,
mp-27456,4.3731,-2.2247286975,4.585943559243344,0.0,-47.46804001,-3.955670000833333,BaBr2
mp-752475,2.1167,-2.1386601354411767,3.945212426909852,0.08399682470587687,-201.36731973,-5.922568227352941,Rb2Ga2Ge3O10
mp-571146,2.5129,-0.9475527444200004,4.4459072495390135,0.0,-38.45125302,-3.204271085,SnICl
mp-556890,3.5717000000000003,-2.731728315631538,3.965106513594197,0.6249145034615315,-267.23483233,-5.1391313909615395,BaNaCr2F9
mp-762863,0.9562000000000002,-2.562000267466667,4.1540117219733865,0.048511483888886715,-103.23061933,-5.735034407222222,Fe3OF5
mp-764472,,,,,,,
mp-560014,1.7721999999999998,-1.8292072122395835,4.95094660089317,0.0,-137.3912294,-5.7246345583333325,Pr3CuSnS7
mp-579560,1.9837,-1.202259995270936,3.9729757687778897,0.0,-42.50818508,-3.036298934285714,Cs3Sb2Br9
mp-779393,,,,,,,
mp-542200,0.6419000000000001,-0.6205790168005956,4.621826376172181,0.0029699132142857465,-108.94075514,-3.890741255,CdAg4Ge2S7
mp-560740,1.6741,-2.559570136796875,5.199049641417587,0.0,-213.00468329,-6.6563963528125,La2SnS3O2
mp-773802,,,,,,,
mp-767692,2.1063,-3.1008336028303707,2.3397178447397984,0.06771692499999382,-95.29801021,-5.2943339005555545,Li2VF6
mp-720912,0.0,-1.318633113861818,2.90894867287902,0.016335729914772834,-172.94352403,-3.9305346370454544,KZnH4Br3O2
mp-12630,2.8707000000000003,-1.8830176001128465,3.624469455029767,0.0016722608333354927,-66.74714974,-5.5622624783333325,MgSeO4
mp-772660,1.7965,-2.7600140404166664,5.1917014971417705,0.008547631071444073,-205.13639451,-8.54734977125,NbCrO4
mp-18932,3.616000000000001,-2.6358648884722222,6.492310186796878,0.0,-178.99955469999998,-7.458314779166668,LiPr(WO4)2
mp-768267,1.9695,-3.014702895083333,7.606348201429179,0.009805871416666,-210.86762089,-7.0289206963333335,HoInO3
mp-43068,3.3353,-2.921575336231884,2.7589235623880737,0.0,-308.11448485,-6.698140975,Na3Al3Si3AgBrO12
mp-778345,,,,,,,
mp-777079,,,,,,,
mp-559129,3.1147,-1.5296381156885712,2.5077998493108846,0.0,-709.04348865,-6.3307454343749985,Li3Er(NO3)6
mp-780146,1.3945999999999998,-1.6482936013622225,4.226470138919469,0.8020456722222313,-92.43413001,-5.135229445,Fe3(OF2)2
mp-850397,1.2825999999999995,-1.520924668333333,4.451785511166915,0.6087216906521817,-275.05304910000007,-5.979414110869565,Li4Cr2Fe5O12
mp-19019,2.1780000000000004,-1.7399519791666656,5.458432399166019,0.0,-76.70566138,-6.392138448333332,NiMoO4
mp-6813,5.2354,-3.3048688389782623,3.00648744161849,0.0,-659.80125409,-7.171752761847826,KCa10(PO4)7
mp-28574,1.4532000000000005,-1.58184907825,6.1720457171974,0.0,-157.13372598,-4.910428936875,KPbO2
mp-761328,,,,,,,
mp-561455,1.3951000000000002,-1.6165724055846769,4.2318511551089815,0.0,-597.12134584,-4.815494724516129,Ba8Sb6S17
mp-977164,1.9597,-0.6274402950774993,1.2979742497234747,0.029130602916667137,-36.37044528,-4.54630566,Li3H3N2
mp-8880,1.9714,-0.605161306785714,2.306796551335551,0.004142022499999953,-20.73836861,-5.1845921525,AlP
mp-744713,2.2696,-1.9328416805751016,2.976441593531093,0.009020304374995902,-675.29785103,-6.029445098482142,NaFe3P2(H4O7)2
mp-989527,2.8096,-1.8607503620382069,4.200713442243717,0.02113054450000007,-38.18630436,-3.818630436,Cs2NaNF6
mp-16164,5.1097,-3.73154864021706,5.761648874268589,0.0,-549.61625676,-8.082592011176471,Dy3Si3O10F
mp-775262,0.7860000000000003,-2.3957308284720003,4.255688392707685,0.08664294066666489,-174.59658994,-5.8198863313333336,Fe5O3F7
mp-11643,1.791,-0.7231622732307899,3.194870858275765,0.0,-87.14903881,-3.96131994590909,K2Mg(PSe3)2
mp-642482,,,,,,,
mp-18915,2.4574000000000003,-2.3943041107483003,3.6508597244543015,0.057110277142860426,-185.19726864,-6.614188165714286,LiCoPO4
mp-29901,1.4415,-0.6936106572222221,4.890188840181676,0.0,-93.98150448,-2.6105973466666668,Rb2Cd3Te4
mp-764745,1.8524,-2.5940809157983344,4.12103414619728,0.05647395500000307,-136.52735111,-5.688639629583334,Fe4OF7
mp-556356,4.7045,-3.3067438022839504,2.805925974960922,0.0,-396.40504673,-7.3408341987037025,Na2SrAl4(SiO4)4
mp-23958,5.367999999999999,-1.6440126658660608,2.030977397757588,0.0,-221.49347797,-5.033942681136363,YH12(ClO2)3
mp-568333,1.1709,-1.1806002306666668,3.5521570271542737,0.014236761111114047,-26.66005419,-2.9622282433333336,K2SnBr6
mp-745180,3.1463,-1.6751193325729996,2.303857647069152,0.025993115908316437,-170.79581115,-5.693193705,CrH6SO7
mp-771501,,,,,,,
mp-18065,7.002999999999999,-4.123882245833,3.9542390414244433,0.0,-235.38673116,-5.884668279,BaCaAlF7
mp-9200,0.5646,-0.8953613580499997,3.644827571072831,0.0,-15.32755064,-3.065510128,K3AuO
mp-555435,1.6238,-0.2968696408660001,2.2465155144412616,0.18136383441071316,-178.99913383,-4.47497834575,S4IN3Cl2
mp-753673,2.3145,-2.149559697480001,8.376864933500691,0.08234316999999969,-128.0104886,-5.333770358333333,BiOF
mp-604273,0.6105999999999999,-1.7023698752014784,2.9414317838731496,0.01136262175606628,-329.6958125,-5.684410560344827,Cu2GeP2(H5O7)2
mp-648,2.4399,-1.2916454110416666,1.8269983827532588,0.0,-9.97237211,-3.324124036666667,Na2S
mp-780164,2.7228000000000003,-1.934839595280172,2.876670212469555,0.08544442528735541,-365.52607706,-6.3021737424137925,Na6Co2C4SO16
mp-777869,,,,,,,
mp-763977,,,,,,,
mp-867168,0.6326000000000005,-0.9313002570833336,6.563641600828272,0.0,-14.50704466,-3.626761165,Sr2SbAu
mp-676855,1.9491,-1.5441589867300003,4.176217307790715,0.07791775749999985,-144.06801211,-5.145286146785715,In(HO)3
mp-715438,0.5713999999999997,-1.7804133378571427,5.356414554134297,0.07826593071428611,-93.30889272,-6.664920908571429,Fe3O4
mp-581403,6.9762,-3.396318934197373,2.6300347459864093,0.002678495050511209,-174.86027924,-5.298796340606062,K3Na4Si3BF22
mp-3486,0.2652999999999999,-0.3400214610000004,4.077146996555272,0.0,-20.50351579,-3.417252631666667,KSnSb
mp-27878,2.6822000000000004,-1.8093547135714283,4.97928237637174,0.0001607292857199738,-162.50702134,-5.8038221907142855,NaSb5O8
mp-625654,2.0789000000000004,-1.3921156252239997,4.775392460788463,0.03218796375001886,-208.64489699,-5.21612242475,TeHO3
mp-15066,4.7806,-3.4503905875,5.30057100309511,0.0,-211.77107157,-7.563252556071428,LiTmSiO4
mp-776842,,,,,,,
mp-1016092,2.6752,-2.038546245833334,5.837607651459893,0.0,-583.64503091,-8.10618098486111,Re2O7
mp-18737,1.7532999999999994,-2.8414643371428574,7.275336107217503,0.16259463107143102,-100.05004091,-7.146431493571429,Nd2NiO4
mp-764338,,,,,,,
mp-27716,1.1727,-1.2068094714166666,5.7932721176000594,0.0,-22.6762915,-3.779381916666667,KTlO
mp-977368,0.7321,-1.2825730356365133,6.117846099939474,0.0,-92.87686291,-4.888255942631579,K2Dy4Cu4Se9
mp-761613,,,,,,,
mp-767338,,,,,,,
mp-19082,2.5256000000000003,-2.966501007873034,4.465567989536367,0.0,-85.89082121,-8.589082121,TiMnO3
mp-38487,1.8615,-1.9874656731547622,4.175879511950887,0.0,-70.54738859,-5.039099185,Li7BiO6
mp-29761,2.2629,-2.833166452321428,5.346193039952944,0.0004861457143050528,-61.57867234,-8.796953191428571,UCO5
mp-21332,3.2816,-3.2214895241666675,6.168644363985197,0.0,-149.44933651,-9.340583531875,LiGdO2
mp-9789,3.0780000000000003,-1.4551401590892863,2.4606169111527194,0.0,-100.42967597,-5.0214837985,CaPS3
mp-756436,1.2101999999999995,-1.582387115625,5.538628718857306,0.14564212500000018,-26.29347348,-6.57336837,FeO
mp-29911,0.33720000000000017,-1.613934053958334,5.309198135941336,0.0,-111.77672581,-4.6573635754166665,Ba3Sb2O
mp-19308,3.71,-1.608802258166667,4.02993671730134,0.04617180599999937,-47.93801947,-4.7938019469999995,Li2NiO2
mp-680333,1.2221,-0.20754656181490375,4.1379437978851605,0.02691565501201953,-210.52542049,-4.048565778653846,Ge4Se9
mp-25706,,,,,,,
mp-504876,0.9576,-0.31319415914893634,6.917550855759638,0.012407886808510238,-96.53883518,-2.0540177697872344,Hg19(As5Br9)2
mp-773667,2.3693000000000004,-0.698421573201999,5.8629592024963735,0.13468896399999866,-263.02192776,-6.575548194,Ge2N2O
mp-853227,,,,,,,
mp-763302,,,,,,,
mp-997035,0.7902,-0.8766594309225004,3.6348168098786986,0.07353799882812506,-37.26069093,-4.65758636625,CuO2F
mp-868649,,,,,,,
mp-778027,,,,,,,
mp-721252,1.3659,-0.8324712316773809,3.366662045415551,0.0,-193.34162752,-3.8668325504000003,Li10Sn(PSe6)2
mp-761504,,,,,,,
mp-6942,1.1167000000000002,-2.0487436089285715,5.304091200277539,0.0,-76.60837049999999,-5.4720264642857135,Ho2CdS4
mp-555646,3.4075,-1.836372177844616,2.9602645550427633,0.045680670384607325,-330.71315296,-6.359868326153847,BaH4(CO3)2
mp-568522,2.0166000000000004,-0.4792884361111113,5.041193844706567,0.0,-96.72394968,-2.68677638,In3SnI5