id,band_gap,formation_energy_per_atom,density,e_above_hull,energy,energy_per_atom,pretty_formula
mp-989584,0,-1.349041958,3.629987998,0,-45.70187062,-4.570187062,Ca6Sn2NO
mp-779424,2.7834,-3.823486836,8.220064546,0,-251.4978887,-11.43172221,Gd3TaO7
mp-762089,2.1349,-1.290144456,2.17411992,0.027436781,-536.3069028,-4.704446516,Na4SnH32(SeO4)4
mp-555236,3.0624,-2.224977218,6.283045857,0,-248.2227481,-6.205568702,Tm2Te5O13
mp-714904,0,-1.367127661,3.962788967,0.208087976,-73.12417694,-6.093681412,FeO2
mp-557470,4.3549,-2.592391662,3.41019435,0,-313.0184645,-5.216974408,K2Sb2S(O2F3)2
mp-770487,0.4797,-2.57685993,3.44881989,0.062365384,-259.8404356,-7.217789879,Li3V3(BO5)2
mp-755794,2.0394,-2.254302185,4.679354925,0.009533063,-72.06965419,-5.147832442,Rb3LuO3
mp-864674,0,-0.379520694,7.642642742,0.000401179,-15.69513635,-3.923784088,Ho2AlZn
mp-20520,0,-0.562975724,10.16977234,0.023169931,-100.7813585,-7.198668466,U3Te4
mp-777461,1.3335,-2.318743576,4.749368368,0.045603024,-189.6465699,-6.773091781,Li4V3Cr2Sn3O16
mp-625145,4.1694,-1.280593284,1.348505562,0.043624015,-101.3955586,-4.608889028,H7ClO3
mp-558294,4.5167,-2.868247341,5.705160973,0.000533977,-344.5860875,-7.178876823,Li3TaO4
mp-8429,0.4302,-1.546299346,3.808243916,0,-44.12751906,-4.903057673,K4IrO4
mp-865612,0,-0.184427172,6.994180633,0,-10.77976881,-1.347471101,LiCd3
mp-18782,1.3005,-2.062664684,4.21854002,0.017601964,-48.67658528,-6.08457316,LiFeO2
mp-3316,2.2116,-3.607646935,6.156414758,0.001336013,-77.15279428,-7.715279428,BaCeO3
mp-756135,2.5885,-3.740759608,7.602177282,0.029456337,-189.4575905,-8.61170866,Tb3NbO7
mp-12047,0.4942,-1.72321869,3.126507366,0.005879159,-81.13782592,-5.795558994,K3Na(RuO4)2
mp-17265,0,-2.408429196,4.437336219,0.054655074,-150.3978962,-6.266579008,Sr2CuGe2O7
mp-675767,2.1413,-2.589818542,5.887121971,0.006442051,-86.73684972,-6.195489266,La2YbS4
mp-9741,0,-1.553051995,6.199948629,0,-58.70361526,-4.891967938,Na3Cd2IrO6
mp-560786,0.5022,-2.239200548,5.221635415,0,-356.8234476,-6.152128407,Nd10S19
mp-735514,3.1912,-0.840413376,1.733381307,0.089415189,-442.0250344,-5.66698762,MnH18C4N8(ClO)4
mp-984350,0.5787,-0.814565747,10.61250247,0,-96.58447788,-4.829223894,Dy3Sb4Au3
mp-1008483,0,0.943561816,7.376826916,0.943561816,-13.96016582,-3.490041455,CdN
mp-32939,0,-1.675639131,5.33177448,0.081951332,-99.03372458,-6.602248305,Fe7O8
mp-757,0.6365,-0.715318677,2.454983961,0,-26.46606881,-3.308258601,Li3As
mp-5440,5.612,-3.130702203,1.918795385,0.011542614,-1076.346516,-7.474628585,AlPO4
mp-4555,3.2956,-2.253695305,4.395443207,0,-56.93972718,-6.326636353,Ca(AsO3)2
mp-780313,2.8297,-1.876068482,2.083829568,0.038501732,-408.3518285,-5.83359755,LiVP3(H7O8)2
mp-4678,0,-1.171814743,5.580414442,0.022927693,-66.96575652,-8.370719565,Zr2AlN
mp-696941,0.8284,-1.647274045,2.894957427,0,-222.28391,-5.55709775,K2H2RuO5
mp-540391,1.0242,-2.139173055,2.714265085,0.007453721,-161.5459511,-6.731081297,CoPO4
mp-607848,0,-0.28818865,8.232308558,0.014892234,-83.30879499,-4.16543975,La(In2Ni)3
mp-698358,1.916,-0.401068381,1.877586424,0.046567728,-311.305683,-6.226113661,NiH10C4(SN4)2
mp-653930,1.5366,-1.566200766,7.107997337,0,-252.9375239,-5.058750478,CuAs2Pb8Cl5O9
mp-216,3.8235,-3.989221956,3.760155332,0,-362.3234357,-9.058085893,Sc2O3
mp-695984,3.8891,-2.298820384,4.902716413,0,-414.052014,-7.393785963,BaRe2H2O9
mp-557564,0,-3.481947007,5.864249019,0,-107.6896104,-8.974134201,CeNbO4
mp-1016875,0,-0.871106698,7.086138459,0.429279753,-25.29645134,-5.059290268,CdRhO3
mp-19120,2.4743,-2.216506905,3.052339148,0,-78.86548203,-6.572123502,MgCrO4
mp-504948,3.9614,-2.895004616,3.820476796,0.007609173,-200.135796,-7.147706999,LiScGeO4
mp-557266,0.2876,-0.058498458,8.049077604,0.374875288,-40.17854482,-3.348212068,HgO2
mp-18451,7.0612,-4.326941471,6.290546684,0,-179.1904997,-6.399660703,KEr3F10
mp-569832,0,-0.462076405,4.410645645,0,-216.2110006,-4.913886377,Nd(Al4Co)2
mp-545847,1.4006,-2.376026313,8.774657963,0,-49.86524474,-6.233155593,LuBi2BrO4
mp-29095,5.7206,-1.620987039,1.89292929,0,-215.0612461,-5.376531153,H4SO5
mp-1564,0,-0.10262121,6.674099995,0,-7.82118623,-1.955296558,NaTl
mp-12046,0.5156,-1.715189102,3.760934535,0,-80.74400613,-5.767429009,Rb3Na(RuO4)2
mp-776041,2.08,-2.273840976,2.707078125,0.031789719,-207.3734939,-7.40619621,V2O5
mp-292,0,-0.456519256,7.121142528,0,-67.42306958,-8.427883698,V3As
mp-17660,1.0199,-1.537349715,5.546722948,0,-121.0384944,-5.043270602,SrPrCuSe3
mp-17756,0.6095,-0.71625489,4.106630252,0,-91.16681731,-3.798617388,RbAg2SbS4
mp-616204,4.144,-1.45916749,2.562369273,0.008980022,-129.8425508,-3.246063769,Ga3Cl7
mp-667342,1.6819,-1.61117191,8.883942855,0.017503853,-188.177388,-5.702345091,Bi12PbO20
mp-675621,0,-0.530755708,2.526302509,0.012544333,-69.11089022,-3.839493901,Li5SnP3
mp-18055,0,-0.851386333,8.194552063,0,-127.0431824,-6.352159118,La2Ge5Rh3
mp-3598,0,-2.181014314,6.875396338,0.024799352,-208.6495795,-6.954985985,BaRuO3
mp-20410,0,-0.446037771,6.914086121,0,-77.23250198,-7.723250198,Ho(BC)2
mp-705336,2.7782,-2.395465315,3.484495842,0.035538253,-310.8572413,-6.757766115,Li2Co3(P2O7)2
mp-760515,2.4394,-2.947690187,5.288731821,0.038378391,-83.36256337,-5.954468812,Ba3Sr4O7
mp-5033,4.9687,-2.959132322,5.634978095,0,-45.31470721,-5.034967468,Tl2SiF6
mp-12054,0,-0.434156804,5.759454149,0.027512286,-82.95954304,-8.295954304,Cr2B3
mp-677131,0,-3.869536563,6.830641502,0.017660078,-260.4906939,-8.683023131,Ce9YO20
mp-755413,1.0916,-1.360458293,2.080761796,0.079004793,-21.96918624,-3.66153104,Na2O
mp-12814,0.7075,-0.892062856,5.289410113,0,-44.62782734,-4.462782734,Ba3SbN
mp-809,0,-0.14015403,10.28785247,0,-43.80079975,-7.300133292,ThCo5
mp-974395,0,-0.013004272,18.58515924,0,-25.56944171,-6.392360428,Pt3Rh
mp-753495,0,-1.821423209,6.02228101,0.039255669,-63.42315043,-5.765740948,Sb3O7F
mp-570965,0.1028,-1.585198907,4.654569865,0,-79.05061229,-4.650036017,Pr6CoBr10
mp-735519,3.0239,-2.960336155,4.34531286,0.063750346,-347.5358599,-7.240330414,KHoCoSi2O7
mp-562001,0,-0.799956177,2.512525901,0.002786202,-134.9116906,-2.409137331,Cs11O3
mp-721943,0,-1.863455347,2.172658714,0.002946408,-522.9323213,-5.028195397,CuSiH12(OF)6
mp-721255,5.1063,-2.649041247,2.237302883,0.092703905,-304.5352917,-6.090705834,Li10Si(PO6)2
mp-21724,3.103,-2.399726502,5.829655202,0,-352.8268976,-6.300480314,ZnSiPbO4
mp-19880,0.0852,-0.174414158,8.053990409,0,-30.53580721,-5.089301202,FeTe2
mp-757070,3.0451,-1.632156976,4.292422342,0.09038585,-19.79606727,-3.299344545,BaCaI4
mp-771515,1.3721,-2.329052769,5.137689062,0.065269513,-192.3014509,-6.86790896,Li6V3W3O16
mp-775297,0,-2.012722247,3.422871494,0.029320457,-155.5918621,-6.482994253,FeCu3(PO4)4
mp-766923,1.8513,-2.845784966,3.439087215,0.011353445,-206.2266027,-7.365235811,LiVSiO4
mp-550553,2.8418,-1.613939061,6.374422001,0,-45.17871191,-4.517871191,CdBiClO2
mp-20801,0,-0.448563467,7.783501557,0,-14.38408514,-3.596021285,LiIn2Pd
mp-6203,0.0018,-1.962286621,4.089871704,0.055222573,-266.2693189,-6.05157543,CaCuAs2O7
mp-555661,4.3213,-3.249553805,3.156063469,0,-646.421237,-7.182458189,Ca9In(PO4)7
mp-567330,0,-2.02729775,2.521871565,0.027262174,-79.07148513,-4.941967821,TiCl3
mp-760980,0,-0.401279615,5.171565236,0.100413001,-46.82676251,-4.682676251,FeCu5S4
mp-762274,0,-1.91687984,3.794821438,0.09458421,-494.3564155,-6.179455193,LiCu4(PO4)3
mp-676813,1.7042,-0.483340064,4.668624871,0.043939284,-99.03969442,-2.475992361,RbAg4I5
mp-972021,0,-2.138384692,5.555595953,0.188916449,-27.80708073,-5.561416146,SrInO3
mp-505322,1.2563,-0.47220784,5.904752508,0,-149.1870199,-4.662094371,CsTa(CuTe2)2
mp-15317,6.4808,-3.607201566,4.338348108,0.001300002,-52.54484471,-5.254484471,Rb2NaHoF6
mp-21906,0,-0.265072781,11.97994842,0.016651382,-350.6872583,-8.991980983,U20Si16C3
mp-2713,0,-0.907431247,15.21374007,0,-15.24610058,-7.62305029,ErIr
mp-23764,4.2448,-2.640379872,2.496248081,0.0008964,-114.1871603,-6.343731126,Mg3Si2H4O9
mp-996161,0,-0.519304262,6.702486692,0,-111.3085869,-9.275715571,Nb3AlC2
mp-867325,0,-0.379269018,12.50095245,0.035331341,-34.61165505,-8.652913763,Pu2HgSb
mp-1019532,4.1915,-3.44346933,3.465380672,0.023319077,-351.2941787,-7.318628723,BaAl4O7
mp-23630,1.6519,-2.061785965,7.913414313,,-350.9542889,-6.267040872,NbBi4ClO8
mp-2656,0,-2.399045733,5.890586222,0.034918686,-89.89256199,-6.420897285,Nd3S4
mp-777942,0,-0.377970858,2.999057637,0.003761828,-196.6596125,-3.390682974,Ba14Na8CaN6
mp-645,0,-1.613741086,6.816056057,0,-13.26474121,-6.632370605,TbP
mp-647489,2.3676,-0.590472406,5.062047759,0.001664592,-40.06989038,-1.908090018,CdI2
mp-15349,3.568,-2.338759526,3.354531819,0,-70.30098847,-5.858415706,Li2GeO3
mp-768827,3.171,-1.66257272,4.1435711,0.09435901,-117.9619218,-3.27672005,BaSrI4
mp-765341,0,-2.188477377,3.740094461,0.034223187,-99.28131886,-4.136721619,LiCuF4
mp-764733,0.0492,-1.480648716,4.727976415,0.03233281,-96.68240682,-4.834120341,Li5Ni5O9F
mp-8216,4.5012,-3.542918979,5.201167554,0,-167.9958344,-8.399791719,LaBO3
mp-567915,0,-0.640575665,9.135199028,0.069714363,-98.39085903,-5.466158835,La3MnBi5
mp-754044,2.9346,-3.821417416,7.127311641,0.094760477,-137.5133324,-8.594583276,Ho2TiO5
mp-560545,2.6021,-2.052485789,3.567665534,0.02007957,-225.9693542,-5.946561953,Na2Ca(AsO3)4
mp-557296,0.0894,-2.587419035,5.711314487,0.020001578,-66.20653355,-6.620653355,Sr2MnSbO6
mp-1020621,4.864,-2.907102301,2.668207487,0.014299829,-383.5533981,-7.376026887,RbBe2B3O7
mp-625402,3.7105,-2.302825951,5.12905046,0.00019044,-86.46917264,-6.176369474,Sm(HO)3
mp-866165,0,-0.689623848,7.383398449,0,-25.52409034,-6.381022585,YMgRh2
mp-1250,0,-0.325454196,9.66245666,0,-25.55991713,-4.259986188,Lu2In
mp-626241,3.4469,-1.456502522,1.910015062,0.046706764,-270.2191199,-5.004057776,Sr(H8O5)2
mp-1410,0.0515,-1.891831151,9.888093044,0,-16.34157839,-8.170789195,DyN
mp-662599,0.8906,-0.111778825,6.331067229,0,-292.6177497,-3.483544639,Ag3AsSe3
mp-12463,0,-0.318521029,9.247079424,0,-48.02395157,-4.802395157,Ni(TePd)2
mp-4699,2.3847,-3.085294533,6.857100975,0.001413411,-165.1983076,-8.259915381,NaTaO3
mp-8121,0,-0.641907103,6.819679453,0,-32.3333597,-5.388893283,SmCuSi
mp-14037,1.7809,-2.230301074,6.605426466,0,-44.24554933,-4.424554933,NaTl2RhF6
mp-979137,0.4531,-0.450127801,4.091729385,0,-15.18028704,-3.79507176,SrGaSiH
mp-779096,3.5119,-3.902205998,9.192111855,0.025555971,-391.1966571,-8.890833115,Tm3TaO7
mp-974906,0,0.274400136,6.957701901,0.274400136,-40.1796821,-5.022460263,MnSn3
mp-561533,3.3231,-2.220874898,4.871832532,0,-262.9909798,-5.478978746,SbOF
mp-754322,0,-2.202085541,5.269658313,0,-39.78765854,-5.68395122,Sr2CuO4
mp-6580,0,-2.59235623,6.420839612,5.36E-06,-211.9879899,-7.066266331,Ba3NdRu2O9
mp-9309,3.4027,-3.035876685,4.755151806,0,-163.6503168,-8.182515838,CsTa(BO3)2
mp-766984,0.3329,-2.894778963,2.555092178,0.084743805,-349.9312043,-7.290233423,Li2Fe(Si2O5)3
mp-770744,1.5544,-2.331102257,4.943609069,0.019716069,-189.9603602,-6.784298577,Li4Nb2Fe3Sn3O16
mp-997569,2.1635,0.057723459,0.528386572,0.66798508,-36.16980244,-4.521225305,AlP
mp-560326,3.3351,-2.830780338,4.593126028,0.023433633,-277.318114,-7.297845105,Ba5B3CNO9
mp-8702,2.7272,-2.288708232,3.888808642,0,-254.9280354,-6.069715128,LiGaGeO4
mp-556074,0.0812,-1.341036128,3.890382,0.002956707,-107.3552841,-5.112156385,K2Cu3(SeO3)4
mp-8133,4.7024,-3.523246954,3.919722862,0.003278332,-145.1445851,-8.063588062,LaPO4
mp-9406,2.1148,-3.501758217,4.915753042,0.019989449,-139.154552,-8.185561884,Li2La2Ti3O10
mp-696138,2.3644,-1.280354138,1.977131974,0.018819522,-216.2078746,-4.324157491,Li10Ge(PS6)2
mp-567204,0,-0.160650361,6.657350139,0.064672728,-146.5316294,-1.809032461,Ho8Mg12Zn61
mp-510002,3.6714,-1.694277531,3.03581556,0,-76.44114017,-5.096076011,K2Sn(HO)6
mp-15998,1.1053,-1.163789088,3.451061106,0,-82.9246184,-5.18278865,RbV(CuS2)2
mp-22002,0,-0.33549817,8.770700192,0.045003285,-81.55297497,-5.825212498,Sm3Co6Sn5
mp-862966,0,-0.260299835,10.12836544,0,-13.81195805,-3.452989513,PmTlAg2
mp-744637,1.9457,-2.850423638,3.540158461,0,-251.634844,-7.401024823,Ba2V3P6HO22
mp-775007,0,-2.452603609,4.06966317,0.027243613,-247.234478,-7.271602293,SbP6(WO8)3
mp-735483,4.6221,-1.756949926,2.359699856,0.009101137,-349.7098272,-5.46421605,Na3LiMo2(H6O7)2
mp-754517,3.7364,-1.637287727,3.835461882,0.032363339,-29.53858793,-3.282065326,SrCa2I6
mp-423,0,-0.541375088,10.18840156,0,-49.80946611,-5.534385123,GePd2
mp-740759,2.7756,-0.58811394,6.70713739,0,-264.4656079,-3.265007505,Yb19(Mg4H27)2
mp-15813,0,-0.07548981,14.01796693,0,-304.4421136,-10.87293263,Mn3W3C
mp-3871,0,-0.720730579,6.244639824,0,-63.8240961,-7.978012013,Ti2SnC
mp-773178,2.3858,-2.127316563,2.525941787,0.050427856,-156.2062082,-6.50859201,Na2CrCSO7
mp-572634,3.4407,-1.998202315,2.436939102,0,-310.4349667,-4.31159676,Al2AgCl5O
mp-1019256,0,-0.330943181,9.490849358,0.010433045,-18.69790929,-3.116318215,SmTlZn
mp-973623,0,0.257876283,10.04604254,0.257876283,-15.28597588,-3.82149397,GeBi3
mp-780230,2.0011,-2.547505516,10.38449013,0.003871883,-422.2187422,-10.55546855,Hf2N2O
mp-27796,0,-0.427523952,2.687572051,0.060922393,-70.9055027,-3.545275135,Li4H5Rh
mp-972827,0,-1.834793803,8.58305411,0.724645978,-31.17677669,-6.235355338,SiBiO3
mp-20790,2.3061,-0.80514328,2.947429051,0,-26.85018651,-4.475031085,InPS4
mp-29396,0.6462,-0.994245482,7.830003269,0,-50.64822853,-5.064822853,Cu2PbO2
mp-18350,0,-0.66772157,5.900683389,0,-282.5463732,-8.829574162,V3P
mp-675740,0,-1.430059084,6.263461558,0.030652282,-72.90203072,-5.207287909,Ca(CeTe2)2
mp-19395,1.0729,-1.81395748,4.051222953,0,-85.49240773,-7.124367311,MnO2
mp-849761,2.191,-1.661055719,8.950114049,0.021506299,-373.2856062,-5.74285548,GaBi25O39
mp-767723,1.8542,-3.031425235,2.850478941,0.044456892,-131.7288747,-5.488703113,LiV2F9
mp-12295,4.1563,-3.394127242,4.597707892,0.003304934,-654.4524156,-7.791100186,Sr3La2(BO3)4
mp-572763,2.136,-1.058746007,2.303951506,0.007685031,-291.8686888,-4.864478146,TaP4(SCl)5
mp-582146,0.4575,-1.766856559,3.607373656,0,-166.8200249,-5.213125777,CsNb4Cl11
mp-17924,4.2542,-2.456117324,4.978457368,0,-289.5843374,-6.581462214,ZnP2PbO7
mp-28996,1.6427,-0.922324798,8.058442091,0.021940419,-201.5553316,-4.58080299,Ag4Bi2O5
mp-504941,0,-0.749398086,4.371057621,0,-273.3941663,-7.594282396,Sc2V3Si4
mp-560152,5.6113,-3.191512315,2.287444815,0.097638701,-375.2429519,-7.817561498,SiO2
mp-777896,1.6524,-2.259442097,4.042872751,0.038112906,-190.1306574,-6.79038062,Li2V3NiO8
mp-753818,0,-1.050108489,2.735418872,0.168969327,-91.90446047,-5.105803359,Li3(FeS2)2
mp-1756,0,-0.485923961,7.097319827,0,-50.88253116,-7.268933023,ThB6
mp-25372,0,-1.385996477,4.745681471,0.073650905,-20.00408121,-5.001020303,LiCuO2
mp-505522,0,-0.74803078,4.84984458,0.061797566,-78.22046687,-5.587176205,Fe(NiS2)2
mp-27311,3.0102,-2.166000168,5.313412801,0.053664038,-49.75296162,-8.29216027,LaCO
mp-2920,4.0215,-3.744149358,6.371511363,0,-80.14937415,-8.014937415,LaAlO3
mp-33797,0,-1.766430108,5.510910171,0.147843518,-61.47245372,-6.830272636,Sr(RuO3)2
mp-22023,2.9378,-1.845467518,7.105224116,0.006739163,-116.7640013,-5.838200066,Pb3SO6
mp-631463,0,0.684007968,10.09861463,0.684007968,-16.30399016,-5.434663387,CuTcBi
mp-10469,0,-0.799516793,11.28890455,0,-95.97534246,-7.997945205,NbSiPt
mp-581991,0,0.093588138,6.58735242,0.905333694,-456.3955489,-8.451769424,Nb2P
mp-553956,3.1822,-2.323800541,7.290285324,0.034251668,-171.8894661,-6.611133312,P2Pb3O8
mp-973994,0,0.286342253,16.66233843,0.286342253,-40.28756953,-10.07189238,NpPa3
mp-8111,4.257,-4.275896357,5.915851134,0.0058543,-46.80249186,-7.80041531,LaOF
mp-4893,0,-0.773818805,11.55374018,0,-72.47720373,-9.059650466,Hf2SnC
mp-782631,0.0869,-1.99088627,4.056708678,0.1167726,-210.4546531,-6.377413729,Li2Cr(FeO3)2
mp-34489,0.407,-0.758205995,5.152709209,0.114699987,-29.34330758,-3.667913448,LiInSe2
mp-628643,0.7906,-0.643839874,5.235308824,0,-106.8196032,-4.4508168,CuAsPbS3
mp-6102,0,-0.451347467,7.179171449,0,-41.6122201,-6.935370017,NdNi2B2C
mp-776610,3.1662,-1.644636162,3.271277567,0.089428025,-307.9313211,-3.499219558,Ba6YI15
mp-560366,2.7851,-0.813179572,3.384029605,0,-228.0209385,-2.035901237,XeF6
mp-764057,1.6412,-2.437273888,3.287218153,0.046678304,-162.1180885,-6.754920352,VO2F
mp-677454,2.5132,-2.309829964,6.865390352,0.006828792,-539.6737874,-6.581387651,P6(Pb2O5)5
mp-554583,5.2489,-2.85535299,3.383759567,0,-591.7251524,-7.396564405,DyP5O14
mp-202,0,-0.261716916,7.497618181,0,-308.8044269,-5.146740448,TaTe4
mp-12072,0,-0.275546302,16.88174875,0,-18.66727839,-6.22242613,UAu2
mp-759405,3.285,-2.46743325,8.158092403,0.005191272,-207.6985934,-5.192464836,Bi3O2F5
mp-1019259,0,-0.555083602,7.494679034,0,-15.32478412,-2.554130687,SrSnHg
mp-865662,0,-0.522619189,10.22983739,0,-11.67829798,-2.919574495,Yb2AgPb
mp-26855,3.9146,-2.560035352,3.246211244,0.041554795,-257.6443483,-6.780114428,Li2Sn(PO3)4
mp-772155,3.3761,-1.967081066,4.067089834,0.057914497,-149.5547694,-6.231448724,Li2BiAsCO7
mp-770745,1.5205,-1.85019474,2.983263044,0.0661581,-276.001606,-6.272763772,Li2Cr2O7
mp-619067,0,-1.51099053,7.737089064,0,-168.9231787,-7.038465778,U3Cu2S7
mp-756510,3.1491,-2.401715517,2.519599452,0,-101.7191301,-5.651062784,K4TiO4
mp-18279,0,-0.538016714,7.260891567,0,-86.90287601,-6.207348286,Zr2CuGe4
mp-540962,4.8922,-2.953830768,3.125111497,0,-263.1240787,-7.309002187,KLa(PO3)4
mp-707307,5.6698,-2.487684202,3.719803033,0.01406357,-535.9043738,-6.698804672,Nd2P3(HO2)5
mp-554472,5.0611,-1.51037799,1.933200223,0.009664031,-132.4690776,-5.519544902,PNClF
mp-5784,2.9889,-2.150699328,3.198914492,0,-65.7659816,-5.480498467,Na2GeO3
mp-675219,2.2419,-2.418441779,4.100060725,0.034099172,-124.3717094,-5.407465624,Ba9(LaS6)2
mp-24136,5.3874,-0.459367745,1.818436753,0,-132.7535005,-5.105903867,Cs(BH)6
mp-631487,0,0.663745541,12.73024843,0.797733581,-28.43449173,-7.108622933,LaBeOs2
mp-30522,0,-0.618567973,10.28988402,0,-221.4620093,-6.92068779,Nd5Ir3
mp-13572,0,-1.147579355,11.87320563,0,-56.92365888,-7.11545736,ScSiPt2
mp-31096,3.6018,-0.360656126,1.018913891,0,-65.03400472,-3.251700236,Li3AlH6
mp-15659,0,-0.368322617,13.93375245,0,-56.53358445,-5.653358445,Sb2Pt3
mp-16534,0,-2.054412502,5.268218038,0.072816536,-111.2578559,-6.180991993,BaSm2FeS5
mp-768991,1.9868,-1.9877455,3.725423509,0.075236294,-354.1729298,-6.558757959,Li4Bi2C4SO16
mp-9778,1.2394,-0.345344564,3.092660986,0,-23.68102964,-2.960128705,K2AgP
mp-561318,0.5734,-3.253424905,4.642079574,0.000592307,-250.430175,-5.217295312,Ba2AlCu2F11
mp-865807,0,-0.619566883,10.4297099,0,-37.99869219,-9.499673048,Ti2MoIr
mp-1866,0,-0.98126762,2.218358476,0,-27.23917513,-4.539862522,KO2
mp-555458,0,-1.619632066,4.665459157,0.025612121,-70.36548772,-4.691032515,Ba4Fe2S4I5
mp-695202,1.9945,-3.260351329,2.555123809,0.032419105,-437.5890905,-7.416764246,Mg4Al9Cu(SiO4)9
mp-1974,0,-0.628178242,5.808045848,0,-143.1572833,-7.157864163,CeB4
mp-605108,5.8942,-2.010178695,2.059467937,0.012678665,-345.2025447,-5.951768011,Al2P3H11O13
mp-540586,1.1265,-1.51549589,8.729911971,0,-122.0620668,-5.08591945,Tl2SnO3
mp-4690,2.9948,-1.76734095,3.678330583,0.014525433,-72.09443303,-6.007869419,K3TaO8
mp-673096,0.2222,-2.538769837,2.960597007,0.083311571,-189.3531104,-6.762611085,Li3Sn(PO3)6
mp-27229,3.2472,-1.891232909,4.84325143,0,-277.1749983,-6.025543442,Sb6S2O15
mp-6702,3.7158,-2.605191683,3.325547376,0,-679.5592936,-6.534223977,Na7In4P9O32
mp-777679,3.384,-2.861948502,3.019861289,0.064055113,-121.9547803,-5.081449178,LiFeF4
mp-776860,0.5905,-1.942446349,5.517301971,0.068900032,-179.7487593,-6.419598546,Li4Fe3Co3(WO8)2
mp-997159,1.0801,-1.621420561,9.215994787,9.41E-05,-51.67167623,-6.458959529,CrAuO2
mp-568083,0,-0.44285357,6.869206139,0,-41.72275268,-6.953792113,LaNi2B2C
mp-18561,0,-0.526364889,10.47626883,0,-103.3095755,-6.45684847,Ga2AsRh5
mp-8996,0,-0.469365759,5.055146602,0.002755717,-68.92045068,-8.615056335,Sc3RuC4
mp-567763,3.5811,-0.204578976,2.268336823,0,-269.9640725,-8.436377265,Pr(C2N3)3
mp-6492,3.5379,-3.099408922,6.220451757,0,-70.79649806,-7.079649806,Ba2YSbO6
mp-745164,2.9477,-2.339150289,2.654187722,0,-432.5049751,-6.757890235,FeP3(HO5)2
mp-1299,0,-0.722451498,14.62301619,0,-19.70632946,-6.568776487,SiPt2