id,band_gap,formation_energy_per_atom,density,e_above_hull,energy,energy_per_atom,pretty_formula
mp-16773,5.3197,-2.942728839,3.443269585,0.003214892,-262.1261556,-7.2812821,KTb(PO3)4
mp-38843,2.0939,-3.361675679,6.623522052,0.144780634,-81.32678133,-9.036309037,CaTa2O6
mp-626112,3.3896,-1.230250943,1.493317312,0.037131052,-292.8505327,-5.229473797,H7NO6
mp-1910,0,-0.34175439,8.791109883,0,-36.87613197,-6.146021995,CeNi5
mp-753848,0,-1.127449289,5.666415967,0.035990403,-69.55448012,-4.968177151,Li(CuO)3
mp-542054,1.8834,-1.647210232,8.095161816,0.013522585,-279.5282625,-4.819452801,Hg9(PO4)4
mp-764741,1.3031,-2.344663983,3.1999037,0.073105248,-307.2212935,-7.144681245,Li3Fe8(BO3)8
mp-10985,0.4689,-0.668997135,4.980955608,0.001151065,-48.51445832,-4.042871527,RbCu3S2
mp-571443,0,-0.301711054,5.250995913,0.000530126,-13.0525186,-2.61050372,SrMgIn3
mp-11525,0,-0.503128001,9.882065834,0,-45.05076301,-5.631345376,TmNi
mp-781080,0,-2.012843607,4.405527817,0.091871551,-144.9103462,-6.037931093,Fe4O5F3
mp-686086,0.4892,-0.281462196,8.272793617,0.002581765,-292.726648,-3.049235917,Tl9SbTe6
mp-20708,0,-0.593621456,6.773083022,0,-33.92267338,-4.846096197,In2Ni3S2
mp-26835,3.954,-2.463365692,5.107152575,0.040195201,-252.7157696,-6.650414989,Li3Bi5(PO4)6
mp-632402,0.3837,-3.833653366,4.688017814,0.025449056,-68.73825177,-6.248931979,LiCaUF8
mp-631532,0,0.5195835,4.929694099,1.4146676,-10.44767581,-2.611918953,BaBe2Te
mp-22542,0,-0.560459368,10.6550821,0,-29.16377716,-5.832755432,Tm3PbC
mp-554615,5.3734,-2.948473908,3.212187153,0.006546718,-524.4257422,-7.283690863,KEr(PO3)4
mp-768908,0.5903,-3.187258788,8.585388606,0.075943848,-36.68766302,-7.337532604,Ho2TeO2
mp-1018942,0,-0.33807114,8.991446353,0.004004188,-18.1591568,-3.026526133,PrTlCd
mp-559822,3.6846,-3.382411391,5.4791974,0.006118396,-457.1998069,-7.619996781,La2TaCl3O4
mp-752895,0.9648,-2.628748931,2.91178769,0.097215855,-73.0708044,-4.566925275,Li3CuF4
mp-8039,7.4251,-3.88976283,2.888796844,6.43E-05,-70.7064147,-5.892201225,AlF3
mp-674361,2.9655,-2.907922322,4.384557111,0.003321128,-392.3996901,-7.847993801,LiNbO3
mp-762292,1.2352,-2.46450602,3.865612232,0.043189808,-133.7076836,-7.037246505,Li4V5O10
mp-1007693,0,-0.086834491,19.7555418,0.268940928,-43.95163855,-10.98790964,HfOs3
mp-631336,0,0.649415803,6.660747236,0.709590458,-24.15954162,-6.039885405,LaMgNb2
mp-775190,0,-2.230223019,4.091097211,0.066157631,-95.14129738,-6.795806956,Li2V3CuO8
mp-23310,0,-0.823626571,9.774904855,0,-47.15094449,-3.367924606,Yb4Bi3
mp-864906,0,-0.326553421,13.53028299,0,-24.64759987,-6.161899968,MgSnIr2
mp-756897,0,-2.024492345,6.719161533,0.064743561,-144.2758379,-6.011493246,DyTe3O8
mp-18812,3.0196,-3.1956124,4.781728102,0,-96.48327215,-8.040272679,NdVO4
mp-982448,0,0.013709959,6.393974428,0.013709959,-20.65193149,-5.162982873,Pm3Y
mp-24001,3.9583,-2.383228802,3.035367882,0,-170.2398106,-6.079993235,NaZn2P2HO8
mp-27295,3.4455,-2.814314193,3.946005643,0,-536.0477907,-6.233113846,Mg14Ge5O24
mp-768094,2.4394,-2.299163804,2.778646119,0.013757833,-320.8550954,-6.684481153,Na2FePCO7
mp-567271,0,-0.286651,8.915306942,0,-33.42332956,-6.684665912,Np(CuSi)2
mp-20647,0,-0.711775516,5.359879308,0,-60.54448022,-6.054448022,Nd2ScSi2
mp-766664,1.6747,-2.59099848,3.643667796,0.034923231,-577.2332497,-6.871824401,LiFeSiO4
mp-23942,5.2359,-1.877822693,2.365907355,0,-224.5926244,-6.23868401,KPHNO2
mp-39387,3.6266,-3.433492495,6.450472416,0.019904471,-183.700798,-8.350036274,SrLiTa2O6F
mp-30526,0,-0.183547413,3.551718832,0.013314534,-672.4352877,-4.872719476,Mn4Al19
mp-975463,0,-2.237780791,6.006737121,0.170510984,-29.01230235,-5.80246047,RbAcO3
mp-674297,2.5717,-1.445783056,2.116737536,0.009911556,-233.5922765,-5.839806914,NaNO3
mp-996942,0,-0.968168593,5.039246899,0,-36.10598688,-3.610598688,Ba6In2NF
mp-3248,3.6478,-2.869808067,6.008203297,0,-86.7996312,-7.2333026,TbAsO4
mp-19996,2.8993,-3.430172004,6.425657276,,-85.94868196,-8.594868196,Ba2GdNbO6
mp-753306,0,-3.921323128,8.423283368,0.003018985,-116.3887598,-9.699063318,YUO4
mp-156,0,0.003320302,6.257527642,0.003320302,-4.92327123,-4.92327123,La
mp-974603,0.4017,-1.717123154,7.52171414,0.00890252,-16.59232036,-2.765386727,HgF2
mp-775442,0.1418,-2.010215406,4.732117575,0.082824449,-172.5937454,-6.164062335,Li4V3Ni3(SnO8)2
mp-765484,0,-1.60737432,2.367823927,0.032453529,-312.971877,-5.588783518,MnH6SO6
mp-557933,5.5246,-3.281353737,1.879352267,0.007797279,-569.3330102,-7.907402919,SiO2
mp-1013849,0,-1.880693674,4.036239545,0.127168028,-477.5066963,-5.968833704,Li3Fe2(GeO4)3
mp-557049,1.6366,-0.958914497,4.532820734,0.007118873,-72.07736444,-3.603868222,CdSbS2Cl
mp-5152,4.461,-3.801652992,5.347397347,0,-267.2952005,-8.352975015,La2SiO5
mp-1008929,0,0.067927204,6.830444128,0.380338855,-16.27644865,-8.138224325,FeN
mp-540292,0.1979,-2.470134523,3.286802946,0.034081462,-223.338492,-6.979327875,LiCrPO5
mp-31417,3.4828,-3.769394471,7.40260044,0,-194.3979788,-8.836271762,Nd3TaO7
mp-6244,1.1941,-1.009351171,7.594653775,0,-115.613725,-4.817238541,HoCuPbSe3
mp-37070,0,-2.392384711,5.87175521,0.038549185,-89.77615828,-6.412582734,Pr2SmS4
mp-763950,0,-2.569198428,4.315143732,0.045823783,-135.7340559,-7.540780884,V3O5F
mp-29861,0,-1.073923826,2.713336489,0.037409821,-106.44281,-5.913489444,K2Mn3S4
mp-774714,3.1718,-2.54144845,3.381715137,0.060420551,-180.1249054,-6.433032335,Li3Sb(PO4)2
mp-561270,2.6395,-1.39458668,2.593945311,0.052553773,-319.3104047,-6.140584706,SnH4C2NO4F
mp-20911,0,-0.401584781,8.691346742,0,-30.36080357,-4.337257653,LaIn5Ir
mp-5080,0,-0.281611103,2.991354946,0,-119.1681204,-3.310225568,Ba5Mg18Si13
mp-196,0,-0.458499701,4.338445301,0,-144.6800099,-5.167143212,Al5Co2
mp-559375,3.3065,-1.753005151,3.125820603,0,-421.5009318,-5.268761648,CsKTeH6SO10
mp-998398,1.1922,-0.728100548,3.732407385,0.015746432,-15.28880286,-3.057760572,InSnBr3
mp-864922,0,-0.422296656,11.74197527,0,-11.11359167,-2.778397918,MgZnAu2
mp-541612,0,-2.353407002,8.67571948,0,-235.5572034,-8.122662185,La4Os6O19
mp-706995,2.6897,-0.830636009,1.907658207,0,-585.7275414,-4.723609205,ZnCoH18N6Cl5
mp-628768,0.8023,-0.453777142,5.388627945,0.002123783,-264.4705817,-3.673202524,In4SnSe4
mp-676684,3.2499,-3.224797867,4.581482941,0.085506514,-226.744393,-7.558146434,Sr4Nb2O9
mp-971844,0,-0.31711261,9.495676721,0,-93.94748088,-5.219304493,Tm6GaCo2
mp-22682,0,-0.472977452,10.37288357,0,-12.97947793,-4.326492643,In2Pt
mp-767393,2.2812,-3.074798844,3.869750579,0.023545942,-568.0234401,-7.781143015,Li15Ti11Nb5O42
mp-31011,0,-0.979308548,5.641898808,0.00187347,-72.05776658,-7.205776658,Y2Si2Rh
mp-29483,2.0596,-1.163742986,4.209124138,0.012846711,-60.24781027,-3.012390514,MgInBr3
mp-1018819,0,-0.333201059,9.233486495,0.004594767,-18.09276455,-3.015460758,NdTlCd
mp-770494,2.5772,-1.248315692,3.850377998,0.094253417,-91.45773016,-3.266347506,LaMgI5
mp-9460,0,-0.03228808,6.216176294,0,-159.078922,-3.976973051,Zn3N2
mp-1084,0,-0.211666674,3.608851783,0.017219714,-91.44150784,-7.033962142,ZrB12
mp-555472,4.3108,-3.136755246,3.248690336,0.000286727,-310.626888,-7.395878285,Na4Zr2(SiO4)3
mp-6094,4.4678,-3.396991273,2.865338656,0.022592732,-173.616721,-7.234030041,Ca2MgSi2O7
mp-775285,0.0796,-1.205659889,4.622003832,0.007708771,-282.3410762,-5.041804933,Li2CoNi3O8
mp-542724,3.5826,-3.577942508,5.734503751,0,-106.826093,-8.902174419,LaNbO4
mp-705333,2.6911,-2.518918937,2.936196796,0.033387911,-336.3890127,-7.008104432,LiMo(PO4)2
mp-559493,2.6595,-1.823747289,1.884825343,0,-356.3821329,-4.454776662,TiPCl7O
mp-3521,7.8439,-3.24897312,2.413682726,0,-66.38593475,-5.532161229,NaBF4
mp-29156,0,-1.168490188,9.7707282,0.039864574,-174.3670912,-9.687060619,NaTa3N5
mp-972542,0,-0.568230288,13.30722145,0,-15.90346269,-3.975865673,SmTlAu2
mp-999318,0,-0.012487037,11.21729898,0.003518019,-19.40295098,-4.850737745,NiBi
mp-976405,0,0.32500967,7.090580038,0.32500967,-13.74059643,-3.435149108,NaEr3
mp-1020613,1.8405,-1.637196944,4.028758155,0,-331.1276896,-4.13909612,Rb5GaO4
mp-7790,0,-1.429308387,4.762650964,0.015694803,-56.06930411,-9.344884018,Ti2N
mp-20114,0,-0.501911111,8.864801434,0.057388061,-79.06362827,-6.588635689,TmMnGe
mp-13744,2.4167,-1.828108825,4.211804088,0,-63.11254682,-4.508039059,Rb3GaO3
mp-568247,0,-0.72635855,15.96501448,0,-34.40895472,-4.30111934,TmAu3
mp-776005,0.9098,-1.808488528,5.603332193,0.031537779,-110.4285495,-5.521427476,Li4FeBi(TeO6)2
mp-977364,0,-0.236296289,16.00488702,0.024556788,-37.45398974,-9.363497435,HoPaOs2
mp-558769,6.3094,-4.070722087,5.963021363,0.009184053,-558.5106888,-6.346712372,Na3Li4Th6F31
mp-975170,0,-0.20543419,7.98950035,0.01662907,-5.49868116,-0.687335145,RbHg3
mp-13974,2.1791,-3.423339255,8.480125021,0,-38.21514964,-7.643029928,Ho2SeO2
mp-865125,0,-0.698292047,8.651502955,0,-22.12204764,-5.53051191,MgGaRh2
mp-10418,2.2566,-1.871302029,4.41289928,0,-42.16383438,-5.270479298,RbSbO2
mp-974768,0,0.210352181,1.59631934,0.212999683,-6.01268671,-1.002114452,Rb2Mg
mp-2721,0,-3.741368559,7.062916774,0.03938541,-43.25473483,-8.650946966,Ce2O3
mp-9473,0,-0.775048649,5.670679586,0,-28.17593856,-5.635187712,Ba(NiP)2
mp-540942,4.5419,-2.658505927,3.441655551,0,-182.7329529,-4.568323823,KDy2Cl7
mp-755713,0,-3.00201936,7.771681325,0,-36.84520278,-7.369040556,Tb2SbO2
mp-6287,0.2776,-0.504089776,5.262595962,0.001430729,-98.27345877,-3.930938351,Cu6Hg3(AsS3)4
mp-30426,0,-0.51551846,7.92313754,0,-25.39578345,-3.174472931,BaCdBi2
mp-975236,0,-0.905806639,7.886572324,0.148431575,-24.28164014,-4.856328028,RbPtO3
mp-29417,3.3731,-1.643189832,3.133901833,0,-73.10745727,-3.655372864,Na3ScBr6
mp-976126,0,0.579855723,2.414895197,0.579855723,-16.71703599,-2.089629499,K3Rh
mp-1994,0,-1.023769498,11.12172078,0,-26.38258949,-8.794196497,HfB2
mp-9573,1.2979,-0.39090142,3.089422666,0,-21.77689608,-3.62948268,NaBeAs
mp-756296,0,-3.662736762,7.561351925,0.059160911,-173.8298717,-8.691493587,ErTiO3
mp-851,0,-0.936625658,10.77392601,0,-11.61880446,-5.80940223,ErPd
mp-770386,1.718,-2.541060143,3.742915683,0.045073836,-191.3102268,-6.832508101,LiMnAlO4
mp-10219,4.9484,-4.240923497,4.961871468,0.009180335,-49.67423993,-8.279039988,YOF
mp-669347,0,-2.38007824,3.855725134,0,-170.9733456,-4.274333639,KCuF3
mp-20875,0,-0.752514791,9.607880557,0,-50.95141596,-5.66126844,TbInRh
mp-9437,0.567,-0.336694497,8.448732249,0,-23.71039975,-7.903466583,NbFeSb
mp-21372,0,-2.235944299,7.381423677,0,-67.56065817,-8.445082271,CePRuO
mp-10731,3.681,-3.008525463,6.361046651,0.003956638,-68.20396077,-6.820396077,Ba2PrSbO6
mp-743860,2.7972,-1.958751152,4.253206744,0.01024516,-415.5474558,-5.771492442,VZn2HO5
mp-669521,2.3494,-2.203954799,4.779471934,0.007858444,-633.000469,-6.88043988,Nb3Te4ClO15
mp-29704,2.2331,-2.012904892,2.831849783,0,-310.5617771,-5.54574602,Cs(SO2)2
mp-570298,0,-0.607608332,9.349322782,0,-39.52914204,-3.952914204,Ba(SbAu)2
mp-773510,1.3891,-2.29241336,3.048922709,0.094516995,-104.6731808,-7.476655774,TiV2CrO10
mp-973528,0,0.30380692,1.548493441,0.336561806,-7.54109245,-1.885273113,K3Si
mp-13541,4.5797,-3.20695176,4.086794218,0,-78.96445537,-7.178586852,Sr2Mg(BO3)2
mp-558469,1.7782,-0.511274757,4.314292997,0.002013998,-294.3365477,-4.088007607,Ag2PS3
mp-7784,3.104,-1.750347108,4.373809193,0.010786032,-72.36586275,-6.030488563,SbAsO4
mp-33551,1.1991,-1.591972357,4.898360949,0.352574374,-86.64106153,-6.188647252,LiFe5O8
mp-560921,2.731,-2.216854735,3.847280983,0,-273.4099865,-6.213863329,NaAlAs2O7
mp-6493,4.6294,-3.384382467,2.957136875,0,-198.5131398,-7.089754993,CaMgSiO4
mp-777477,3.1167,-2.874166478,3.15816732,0.051837137,-122.2480117,-5.093667154,LiFeF4
mp-558065,3.4034,-2.521425052,3.777724618,0.005767987,-841.5403803,-6.78661597,In4(P2O7)3
mp-866696,0.9363,-2.297549441,4.196325448,0.052658706,-153.3266704,-6.388611268,La3ScBeS7
mp-13283,1.0561,-2.482424321,6.055350404,0,-128.0586742,-6.402933712,Sm(ErS2)3
mp-5109,0,-0.695114956,7.18518411,0,-30.7449643,-6.14899286,Y(NiGe)2
mp-676767,0,-3.820872949,6.25676289,0,-256.2703826,-5.338966303,Ba4Yb3F17
mp-568771,0,-0.560778972,7.855673072,0,-113.4320655,-6.672474442,Sr3(B3Rh4)2
mp-22767,0,-0.489840649,8.7138708,0,-59.16323341,-4.930269451,ThGa4Co
mp-22994,3.6546,-1.398625405,3.979044467,0.004401218,-92.39761795,-4.619880898,LiIO3
mp-974068,0,0.065414959,8.012920473,0.065414959,-21.44353075,-5.360882688,Nd3Th
mp-7656,2.2018,-1.819787807,2.89592062,0,-358.6097209,-4.482621511,Na5GaO4
mp-644481,0,-3.256419012,4.503339989,0.067932618,-17.07179027,-8.535895135,ScO
mp-705900,2.8319,-2.148355198,5.730109406,0,-507.0559776,-6.852107806,Hf3Tl10Mo12PbO48
mp-12710,0,-0.673183842,7.967337948,0,-39.76260527,-4.418067252,PrZnPd
mp-721249,4.4922,-2.510142652,2.450091191,0.095649726,-295.98522,-5.9197044,Li10Ge(PO6)2
mp-580930,0,-0.804071807,9.158259873,0,-111.1719627,-6.94824767,YGe2Ir
mp-16984,0,-2.661904392,5.298723748,0,-137.2857448,-6.240261129,Sr3MgRhO6
mp-975079,0,-0.011434196,7.392018958,0.008975753,-26.04693304,-3.25586663,MnZn3
mp-30550,0,-0.316604716,13.70939409,0.002409721,-112.4516059,-3.748386862,AlAu2
mp-772025,0.9957,-2.354574015,7.342886085,0.108837276,-302.3850106,-6.872386605,TaIn3O7
mp-625812,2.4593,-1.08969475,2.972579944,0.367175155,-110.6519868,-5.029635764,Sr(H2O3)2
mp-558195,4.0854,-3.345643997,4.9935574,0,-177.0887448,-7.378697699,Ba2HoB2ClO6
mp-556030,0.4412,-2.461768498,4.734030194,0.015356543,-201.8554134,-6.307981667,BaCuCO3F2
mp-684768,0,-3.334737977,7.126675254,0.548757349,-77.57126735,-7.757126735,Sm2O3
mp-773061,0,-3.342733669,5.04853922,0,-549.2900988,-8.582657794,Ba6Ti7Nb9O42
mp-560624,4.2853,-2.581240232,3.511830268,0.002905006,-306.6980164,-6.389542009,Na5Bi(P2O7)2
mp-17344,1.496,-1.543463137,5.694183019,0,-113.4988377,-5.159038078,RbEr2Cu3S5
mp-29459,0.9262,-1.098721771,4.003853861,0.020691306,-109.6350427,-3.915537239,Rb3Mo2Br9
mp-752429,0.928,-2.477095703,7.703051752,0.07864985,-135.0568413,-6.752842062,ScTlO3
mp-943462,3.9754,-2.066480314,3.011973298,0,-216.27743,-6.007706389,LiFeHSO5
mp-1619,0,-0.406362214,3.952256527,0,-121.2783406,-4.331369306,Ba3Si4
mp-765705,0,-2.37955781,4.074442555,0.101849122,-105.4495591,-7.532111364,NaV5O8
mp-554605,3.0336,-2.284362185,3.251016891,0,-93.11388551,-3.87974523,Rb2SbCl3F2
mp-761036,1.6876,-1.336563861,4.646705745,0,-58.65855539,-4.888212949,CdSeO4
mp-631301,0,0.798312453,9.128444955,1.266622313,-10.66548536,-3.555161787,HgPRh
mp-763353,0,-2.025597518,4.386428414,0.07911764,-72.60822005,-6.050685004,Fe4O5F3
mp-776076,4.6059,-3.383656443,4.40041471,0.03922157,-295.5795089,-7.389487723,BaSiO3
mp-669471,1.8919,-0.437769327,2.924459364,0.09960471,-186.3831867,-4.235981517,HgS4(NCl)3
mp-762311,3.2221,-0.969167349,1.769597745,0.094918092,-451.6568855,-4.704759224,ZnH12N4Cl4O3
mp-559094,0,-1.119098172,3.449587224,0.043156501,-83.84554924,-4.658086069,Cu2H3ClO3
mp-752724,3.0352,-3.83465108,6.457961653,0.081526813,-137.725071,-8.60781694,Ho2TiO5
mp-19214,0,-3.173927104,4.831242665,0.046123017,-98.56150392,-8.21345866,CeVO4
mp-554159,5.5993,-2.982751954,2.556813819,0.005801711,-107.4768788,-6.717304922,Li2BeSiO4
mp-755652,3.4118,-3.887080507,8.681246305,0,-196.0291615,-8.910416432,Dy3TaO7
mp-13470,0,-0.401205961,5.285002066,0.032139565,-140.5792082,-7.02896041,Zr3Al2
mp-29187,1.2159,-0.317043547,3.608344829,0,-167.3385348,-5.976376244,Co(SiP)3
mp-2648,0,-1.451422036,2.326312345,0.003530488,-21.39624235,-7.132080783,NbS2
mp-23526,5.5415,-1.203712907,2.374710164,0,-105.968494,-4.415353918,KClO4
mp-758840,5.8809,-2.512647604,2.082940011,0,-736.195541,-7.078803279,KB6P(H2O7)2
mp-27583,5.326,-2.873252871,3.001683594,0,-359.0145057,-7.180290114,Sr2P6O17
mp-19376,1.8879,-2.937210765,4.477702257,0.033573468,-85.48165172,-8.548165172,TiMnO3
mp-569427,1.5606,-0.948954146,3.230932816,0,-121.0206045,-3.361683459,K4Sn(TeSe)2
mp-965,0,-0.530750481,8.110463101,0,-19.57676932,-6.525589773,TbB2
mp-556125,3.8046,-2.220572533,2.293518621,0,-163.2732785,-5.831188516,Na2BHO3
mp-774810,5.1867,-2.527658218,2.725023008,0,-331.6757337,-5.922780959,RbPHO3F
mp-772748,5.2547,-2.868470896,3.263518997,0.001737251,-359.7375681,-7.194751363,Ba2P6O17
mp-776726,1.7065,-3.218022647,3.184694203,0.009469041,-235.305843,-5.882646074,LiV2F7
mp-1019511,5.5569,-3.117393672,1.816233146,0.024851144,-358.1433626,-7.461320055,AlPO4
mp-568747,0,-0.519135691,5.149830298,0.043667155,-22.24152456,-4.448304912,K(NiSe)2
mp-24563,5.1672,-2.082917024,3.038731658,0.025120219,-210.9145129,-6.203368027,Ga2P3(HO3)3
mp-2157,0,-0.07967203,12.89564139,0,-69.21659452,-8.652074315,Co3W
mp-5737,1.1823,-1.715594206,6.329607106,0,-90.07188342,-5.629492714,TbCuS2
mp-569218,0,-0.342828578,4.564044982,0,-51.64411289,-3.227757056,Ba3Al3Ga2
mp-580589,5.3478,-2.491037788,3.478106277,0,-40.13007657,-4.013007657,Cs2NaErCl6
mp-556051,3.0075,-2.081571539,3.857862965,0,-381.8938314,-5.304080992,Rb2GeO3
mp-34891,0,-1.735084969,3.986512797,0.095475367,-336.2563815,-6.862375133,Li2Mn15O32
mp-2988,0,-0.489081543,5.714002103,0,-16.14987804,-4.03746951,Li2GaRh
mp-34770,0.9686,-1.919394475,6.626616547,0.023174591,-114.4892589,-8.177804204,Sr(GdSe2)2
mp-8953,0,-1.029352451,10.07488098,0,-43.32863672,-4.814292969,YbAsPd
mp-27262,0,-0.652405501,6.236437169,0,-145.0981718,-3.297685723,Ca9Zn4Bi9
mp-600033,5.4289,-3.280939993,1.638954886,0.008211022,-284.6516103,-7.906989176,SiO2
mp-22817,0,-0.24834364,7.532111828,0.013373276,-51.33367172,-5.133367172,TaTe4
mp-20680,0,-0.915990164,7.30499553,0,-85.06252545,-6.075894675,Ce4Sb3
mp-981384,0,0.098845773,16.4963703,0.393525305,-39.58722674,-9.896806685,ScOs3
mp-765230,1.5185,-2.99261314,2.8791593,0.004811113,-71.49784484,-5.958153737,LiVOF3
mp-793,0,-0.48626603,2.188847448,0,-60.35510742,-3.772194214,Ca5Si3
mp-975838,0,0.539904203,1.863314891,0.539904203,-11.87296345,-1.484120431,K3Nd
mp-570775,0,-0.719715215,7.975962954,0,-26.55058288,-3.31882286,BaAu
mp-780897,0.8574,-2.236327877,2.695906643,0.026137836,-402.0511266,-6.484695591,Li2Mn2P4H6O17
mp-683949,3.6551,-1.209580191,1.953895918,0.000448924,-297.8913786,-4.65455279,AlP3(NCl3)3
mp-754779,0,-1.458286022,3.32920146,0.082314885,-66.14411242,-5.512009368,Li2NbS3
mp-8999,0,-0.330056921,6.732362897,0,-67.82773949,-4.844838535,NbNiTe5
mp-733653,5.1385,-2.773251622,2.998359805,0.024683156,-256.5280297,-6.750737624,CaAl2Si2(H2O5)2
mp-769778,1.3036,-2.559589116,4.894099462,0.056851322,-214.7067371,-5.964076029,Ca2In2O5
mp-541041,3.7001,-2.734207895,3.802609113,0,-516.6626838,-7.175870608,NdAg(PO3)4
mp-973738,0,-1.030167016,5.517725295,1.322055617,-29.13135345,-5.82627069,GeBO3
mp-2053,0,-0.269624266,8.873377114,0,-71.09052159,-8.886315199,Nb3Sb
mp-8062,1.3923,-0.204256787,3.170448429,0.000718861,-15.05930432,-7.52965216,SiC
mp-570306,2.5487,-0.600078136,4.628862669,0,-60.29729439,-2.512387266,TlGaI4
mp-559663,2.3098,-2.901421874,3.619435765,0.021250581,-83.68476031,-4.649153351,SrLiNiF6
mp-13027,0,-0.720910567,11.39194097,0,-32.95207207,-2.746006006,YbZnAu
mp-862702,0,-0.365041314,7.809967934,0,-17.25760339,-4.314400848,Sc2AgHg
mp-974861,0,-1.214847856,5.277100701,0.521825172,-57.49449356,-6.388277062,Mn2Co2O5
mp-971979,0,-0.339230218,9.36412255,0.008057535,-14.41477781,-3.603694453,Tm2ZnAg
mp-999441,0,0.289548595,7.954194325,0.302130374,-38.81792699,-9.704481748,Nb3Cr
mp-560120,1.7051,-1.187215262,2.51918855,0,-225.877812,-5.944152948,Na2Pd(NO3)4
mp-771387,4.0745,-2.172743538,2.653954773,0.050421538,-394.8063053,-6.807005264,Li6Mn2C4SO16
mp-622105,0,-2.203193149,6.882202656,0.023709963,-78.9789253,-6.075301946,Ba2DyCu3O7
mp-19475,3.1114,-2.911109656,4.189476679,0,-541.2329396,-7.959307935,LaCo(BO2)5
mp-633099,1.6441,-1.82933928,7.951094872,0.015435046,-130.7305494,-5.942297701,Sb2Pb2O7
mp-766034,0,-1.858985943,7.4983509,0.041431697,-191.5892939,-6.606527377,Sr5(IrO3)6
mp-559722,0.8528,-0.83405709,6.316671042,0,-491.7606354,-4.728467648,Hg3(NO4)2
mp-771317,0,-2.618337912,5.042380027,0.104266955,-405.3330995,-7.506168509,Ti5Sb5O17
mp-1113,0,-0.260648387,16.75971714,0,-66.75944799,-11.12657467,BW2
mp-9071,1.0362,-0.522414106,2.657099795,0,-87.97417982,-3.383622301,Na8TiAs4
mp-8267,1.707,-1.061542444,1.953133581,0,-44.442193,-4.4442193,KPS3