id,band_gap,formation_energy_per_atom,density,e_above_hull,energy,energy_per_atom,pretty_formula
mp-6113,3.1668,-2.580693618,3.600621987,0,-224.9222666,-7.028820831,LiTiAsO5
mp-12625,0,-2.515539946,10.98622272,0,-46.75973769,-9.351947538,U2TeO2
mp-13596,5.695,-3.679735824,3.410729987,0.001115241,-104.8182276,-5.823234869,K2ZrF6
mp-760403,0.1919,-1.883636713,6.646018816,0,-36.72125233,-4.590156541,CaCd3O4
mp-706632,2.6678,-0.648617712,2.551263809,0,-464.6368728,-4.839967425,H15RhBr3N5
mp-1785,0,-1.187924247,6.507073681,0,-11.28687617,-5.643438085,PrSb
mp-622197,2.1952,-2.062946952,2.912913308,0,-181.3101439,-5.494246784,Cs2PtS6(O3F)6
mp-19034,3.3085,-2.777297108,3.354741899,0,-179.047199,-6.886430731,Mg3V2O8
mp-1018145,0,0.331852722,6.949193406,0.331852722,-12.50494126,-6.25247063,MnSn
mp-27769,0,-0.520879198,6.550639091,0,-87.43065467,-8.743065467,V3AsC
mp-867913,0,-0.59604432,10.59582487,0,-22.31210039,-5.578025098,LiHo2Ir
mp-18100,1.5871,-0.839263192,3.363289829,0,-108.5826907,-3.619423022,Na6Ge2Se7
mp-559142,5.2922,-2.723923808,2.304504517,0,-531.4849992,-6.643562489,KLi(PO3)2
mp-707977,5.5406,-3.132295117,1.553762903,0.009949699,-269.143974,-7.476221499,AlPO4
mp-777595,3.395,-2.868176021,2.848820325,0.057827594,-61.05212036,-5.087676697,LiFeF4
mp-772160,2.1847,-1.530516648,5.107395596,0.091389114,-49.83911526,-3.559936804,SrLaI5
mp-560973,5.4387,-3.26093714,1.765385662,0.028213876,-425.8972614,-7.886986322,SiO2
mp-8868,0,-0.338640046,3.386127624,0,-33.51570985,-3.351570985,Ba3NaN
mp-11452,0,-0.711550837,17.69125025,0,-22.59402041,-11.29701021,HfOs
mp-556041,4.5238,-3.476930267,5.272203952,0.025248069,-47.27911701,-5.253235223,Ba2NiF6
mp-8126,0,-0.679854807,5.355216713,0,-36.06311601,-6.010519335,YCuSi
mp-30698,0,-0.120725335,8.279028597,0.006762381,-120.8980497,-4.317787489,PrCu6
mp-757551,0.2524,-2.478758195,3.534438405,0.064327374,-514.3849314,-6.594678608,Li3Sn3(PO4)4
mp-556834,0.5768,-1.619896618,2.934752516,0,-87.38993493,-4.369496746,RuCl(OF3)2
mp-18893,1.4377,-2.427694483,3.957651469,0,-91.81113673,-7.062395133,Ca2Mn3O8
mp-6301,0,-2.687449112,6.527614999,0,-217.1792317,-7.239307723,Ba3CeRu2O9
mp-27888,3.8979,-3.40806629,5.754303446,0.004140105,-104.9734291,-8.747785757,Zr3GeO8
mp-752584,0,-1.170134085,3.816386767,0.086291864,-119.5838031,-4.783352125,Na5Cu7O13
mp-754065,0.5166,-1.6428415,7.137830953,0,-48.70244754,-5.41138306,Hg(SbO3)2
mp-15541,5.1362,-3.142087739,2.437477649,0,-733.0783807,-7.636233132,KNa2Si12(BO10)3
mp-867943,2.6315,-0.359871019,3.611612411,0,-167.4745334,-3.806239395,Na3H7Os
mp-866695,2.3069,-0.93630759,4.11812428,0,-122.5813151,-4.377904112,ReTeSeCl4
mp-15161,0,-2.61071045,7.745133845,0.016556876,-172.1793778,-7.826335355,Tb2Ru2O7
mp-18691,0.2661,-0.623174481,4.791425606,0,-77.8688047,-4.326044706,Rb2Ni3Se4
mp-760376,0,-2.683936012,2.851449961,0.088368621,-35.10638731,-7.021277462,KTiO3
mp-755382,2.1209,-1.636548963,7.545557386,0.086333552,-57.77516309,-5.777516309,BiSbO3
mp-626151,4.0477,-3.030725853,4.455577504,0,-60.56570921,-7.570713651,YHO2
mp-754875,0,-1.031626713,8.905438099,0,-43.70867306,-7.284778843,TbSi2Rh3
mp-780106,0,-2.140670451,3.394307575,0.054288818,-238.980129,-6.638336915,FeNi(PO4)2
mp-769266,4.1056,-3.496795104,5.755895419,0.011318739,-435.9498262,-8.383650504,Ca3Ta2O8
mp-30656,0,-0.546537377,6.991897115,0,-55.03699384,-6.115221538,TiGaNi
mp-768143,3.2705,-2.229790732,2.859819445,0.039643759,-149.4180401,-6.791729096,NaGePCO7
mp-753890,0,-0.05249226,8.335090038,0.02223822,-14.9537264,-4.984575467,Ni2H
mp-757256,3.2694,-1.1898593,4.099508679,0.011577497,-137.858206,-4.595273532,ZnH4(IO4)2
mp-772282,1.9473,-1.444256065,5.220420585,0.002576058,-113.1327921,-5.14239964,Sb4I2O5
mp-20095,0,-0.892696011,6.951189231,0,-42.49336175,-8.49867235,Eu(FeP)2
mp-17308,4.6376,-3.680522307,5.917717363,0,-360.7048617,-8.197837766,Tb2Si2O7
mp-27288,0.9089,-1.653770456,3.417008395,0,-136.5182201,-3.792172779,RuXeF7
mp-989526,3.8235,-2.748310341,4.727778664,0,-41.27446781,-4.127446781,Cs2KTlF6
mp-773146,1.1589,-2.307135822,3.379118034,0.063910877,-194.751117,-6.085972407,Li2CuPO4
mp-930,0,-1.332249831,5.449689034,0.046088792,-16.62181597,-8.310907985,ZrP
mp-35759,5.0864,-2.739331979,3.345855449,0,-64.57545233,-4.612532309,Li2NiF4
mp-1018077,0,-0.626701992,8.420286883,0,-17.70296766,-4.425741915,ErGa
mp-568671,0,-0.586828885,5.395416403,0,-132.7332186,-8.295826159,V5Si3
mp-504353,4.6591,-2.54085693,3.157787913,0,-248.2538066,-6.895939072,LiSb(PO3)4
mp-983062,0,0.03346975,1.854550769,0.065217994,-4.11185832,-1.02796458,K3Cd
mp-558102,4.7069,-2.996611147,2.459973244,0,-123.9410352,-6.885613065,KLiSi2O5
mp-1990,1.431,-0.627893587,3.047914961,0,-137.9852504,-3.449631261,Mg3As2
mp-7475,1.0342,-2.599425538,4.935181341,0,-132.9742655,-6.648713273,La2S3
mp-30477,0,-0.562645093,3.639045995,0,-28.82280051,-3.20253339,LiCaSn
mp-1018094,0.1123,-0.535817611,5.463225311,0,-14.34766686,-3.586916715,BaGaSnH
mp-17974,0,-0.202649475,5.396804539,0,-22.5433314,-1.12716657,Na3Hg2
mp-23,0,0,9.030381511,0,-5.77825648,-5.77825648,Ni
mp-5391,4.4973,-3.189682655,3.356698942,0.050218166,-191.4697057,-6.838203776,Mg2SiO4
mp-772798,3.36,-3.549996172,5.628473907,0.053530821,-321.2004642,-7.647630099,BaLa2O4
mp-770520,0,-2.360085947,4.127284361,0.103563578,-197.1827991,-7.042242824,Li4Ti2Cr3Fe3O16
mp-978499,0,0.49289361,5.468174065,0.555073757,-17.39726796,-4.34931699,SiAs3
mp-29198,1.0192,-0.501909782,4.14432596,0,-121.7479965,-3.381888793,Na5AuSe12
mp-769228,1.6246,-1.892443044,4.519869395,0.013640063,-93.54885125,-4.677442563,Cs5YO4
mp-757045,0,-2.473301056,4.952727318,0.078067761,-143.8121004,-7.569057915,Ti3Nb(CuO4)3
mp-849433,3.9344,-2.865577556,2.83810335,0,-318.5373773,-5.688167452,SrTiH4(OF3)2
mp-4171,0,-0.83767774,7.084575567,0,-49.17009134,-6.146261418,DySi2Ni
mp-755159,0,-1.646641221,8.673559874,0.008124909,-123.354701,-5.607031865,Tl2Ge2O7
mp-25935,0.0632,-2.889535722,2.897693492,0.063945001,-585.0210098,-7.312762622,Li3Ti2(PO4)3
mp-558199,1.6217,-0.511207033,3.472811564,0.003803847,-155.7545165,-4.326514348,CuAs4S3Cl
mp-768140,3.5024,-2.280222673,3.897800397,0,-156.3157887,-6.51315786,Na2BiPCO7
mp-1822,0,-0.92592997,5.83628964,0,-57.58731615,-7.198414519,TiAs
mp-9228,2.546,-1.061971951,6.428300477,0.002511856,-87.12918076,-4.356459038,HgSeO3
mp-28202,3.6478,-1.44297275,2.52328654,0,-158.9316717,-4.96661474,K3NO4
mp-1769,0,-0.44324102,8.96918891,0,-20.38394042,-5.095985105,SbPd
mp-23674,4.2532,-1.41690387,2.126009248,0.021352748,-142.8576972,-4.464303036,NaH4BrO2
mp-779156,1.945,-1.335334656,4.512037512,0.001229205,-117.2876099,-4.886983745,CdSeO4
mp-672950,0.0294,-2.376751597,3.17464018,0.054571585,-233.7765661,-6.875781356,Sb(PO3)4
mp-556503,5.2446,-1.563077182,1.437909557,0.069436671,-184.146077,-5.754564906,LiH3CO3
mp-996962,0.5349,-1.12126567,5.062432866,0,-35.34907857,-4.418634821,LiAgO2
mp-27692,5.1593,-3.040980421,3.400032268,0,-757.7229714,-7.892947618,BaB4O7
mp-774186,2.2968,-2.107208876,2.32068961,0.050595739,-449.163786,-6.238385916,LiVP2H5O9
mp-4423,2.7473,-3.756825145,5.592531111,0.050066445,-193.1148414,-8.777947337,La2Ti2O7
mp-5004,1.5382,-0.414664452,3.775968011,0,-90.04332219,-4.092878281,Na2B2Se7
mp-31275,1.1543,-0.514426214,4.347085249,0,-133.7983392,-4.778512115,Ba(TeP2)2
mp-13946,6.6345,-3.672217251,3.725272981,0,-52.15384296,-5.79487144,Rb2ZrF6
mp-8877,3.3444,-3.400940108,2.994664144,0,-161.6278558,-7.02729808,Sr4Al6SO12
mp-720861,4.9359,-1.33998885,1.275291763,0.015229146,-382.1147829,-4.776434786,H13ClO6
mp-1014281,0,2.021269698,1.296112975,2.021269698,-27.54381414,-6.885953535,C3N
mp-20997,0,-0.077609477,9.242253143,0.098024255,-8.68533377,-4.342666885,InNi
mp-631313,0,0.85905125,9.70149374,0.919492453,-29.01864704,-7.25466176,SrHf2Mo
mp-31363,0,-1.994169007,3.030342869,0.009086117,-39.54675271,-4.394083634,K2TaCl6
mp-1019744,4.3747,-3.212624032,2.342215272,0.018036723,-245.7431739,-7.227740409,K2Al2Si3O10
mp-631371,0,0.53672952,12.86200226,0.53672952,-13.71987977,-4.573293257,TlCuIr
mp-554006,4.4798,-3.451672009,3.876156606,0.018577432,-602.1483618,-7.168432878,SrCaSiO4
mp-17322,0.3988,-1.110914461,4.228682377,0.005921993,-109.9110755,-4.579628147,SrCu2SnS4
mp-567734,2.3859,-0.871862856,2.895895795,0,-188.5095369,-3.92728202,AlAs3(SeCl)4
mp-977557,0,-0.646054678,9.322796624,0.027223458,-18.62033254,-4.655083135,NdCdPd2
mp-769631,0.5467,-1.906983909,4.244157737,0.016041442,-90.37449536,-6.455321097,Li2Mn3NiO8
mp-33932,2.6175,-2.522860125,3.99622706,0.060946761,-154.5856881,-7.729284407,NbHO3
mp-862965,0,-0.568025419,13.20813169,0,-15.9327565,-3.983189125,PmTlAu2
mp-17235,5.0924,-3.659063953,5.059768943,0,-360.4717695,-8.192540215,Sm2Si2O7
mp-259,0,-0.227573675,8.470006364,0,-74.49085412,-9.311356765,AlMo3
mp-560334,4.5993,-3.166677392,2.452093686,0,-396.673795,-7.083460626,NaAlSiO4
mp-554141,3.3125,-3.398209632,2.95807339,0.060400239,-189.4444926,-7.016462689,Ca3SiO5
mp-557805,0.7638,-0.806107368,5.649769465,0.031723176,-51.29176577,-5.129176577,MnBiS2Br
mp-861588,0,-0.129290045,8.058804858,0.050368319,-23.44983448,-5.86245862,Pr2CuRu
mp-12193,2.9231,-3.752771957,5.891399635,0,-769.5187498,-8.744531247,Nd2Ti2O7
mp-2675,0,-0.214101407,5.986910376,0,-110.4252171,-4.601050713,MgNi2
mp-30772,0,-0.023588113,2.300409496,0.024787168,-24.32376056,-1.871058505,NdMg12
mp-20557,0,-0.81606803,5.659045625,0,-80.47664754,-6.706387295,YSiNi
mp-556058,0,-1.66176918,4.635139803,0.000487077,-138.3707313,-5.765447138,Na2RuO3
mp-21537,0,-0.378216587,9.892131579,0.011685532,-104.5460638,-3.733787992,Ce(In2Au)2
mp-31160,0,-0.50742587,5.131943425,0,-17.61359335,-2.935598892,CaZnSn
mp-770799,3.913,-2.547900897,2.899026043,0.017375525,-137.6239765,-6.255635295,Li5NbO5
mp-865833,0,-0.340941469,7.257554996,0,-10.36484892,-2.59121223,LaYbZn2
mp-2080,0,-0.059712606,2.424043852,0,-102.007073,-3.643109749,SrBe13
mp-8810,3.9634,-2.74665835,3.643227814,0,-338.2687031,-6.505167368,SrZn2(PO4)2
mp-556515,3.9252,-2.254803928,2.693070156,0.042460241,-208.7250953,-4.348439485,AsSOF9
mp-735022,5.2009,-2.858773569,3.454855151,0.000341621,-756.0105619,-6.750094303,SrPHO4
mp-975822,0,-0.306167298,6.794668761,0.00738425,-13.31909987,-3.329774968,PrNdZn2
mp-743607,1.6181,-2.955820866,3.37778787,0.042116241,-476.8767543,-7.691560552,Li2Ti4Co(PO5)4
mp-996963,0.0068,-0.899248895,7.646032798,0.02348633,-31.58646778,-3.948308473,CdAgO2
mp-690541,2.5222,-1.526270601,5.736365836,0.107348575,-120.1407442,-5.005864343,Tl2SO3
mp-972220,0,-0.848065053,17.0474691,0.011747305,-58.91974853,-7.364968566,TiPt3
mp-13863,3.5407,-2.714777212,4.801994537,0,-131.201886,-6.560094299,BaGeO3
mp-30013,1.2591,-1.282593862,3.367821582,0.006176827,-78.32143967,-2.610714656,SbKr3F11
mp-7704,0,-0.299616753,2.347097431,0,-21.84721925,-4.36944385,Ca(AlSi)2
mp-643384,3.9362,-2.080516784,4.487398428,0,-76.92748756,-4.807967973,BaHIO
mp-15225,4.8267,-3.631006471,5.245602093,0,-719.254424,-8.173345727,Nd2Si2O7
mp-570838,0.4599,-0.279868406,6.390187341,0,-41.15993815,-1.87090628,CdHg4(AsI2)2
mp-703253,2.1487,-1.575223563,3.69913227,0,-121.2694554,-5.512247972,RbFeSe2O7
mp-774146,0.8939,-1.324326996,4.740222755,0.067107619,-53.88224208,-5.388224208,W(BrO)2
mp-865710,0,-0.385005176,11.42436938,0,-14.00463406,-3.501158515,LiSnAu2
mp-765406,0.7101,-2.871705264,6.9570797,0.112755428,-50.15204524,-7.164577891,Nd2NiO4
mp-42227,4.1539,-3.188125955,4.95051835,0.016715933,-55.91567665,-5.591567665,Cs2ZrTlOF5
mp-13356,3.1297,-2.748188528,5.893534337,0,-61.51603224,-6.151603224,Ba2SrTeO6
mp-22812,0,-0.151620566,11.37182014,0,-59.28962104,-4.940801753,In2Ir
mp-772464,0,-1.991347505,4.133144783,0.084326091,-182.5175297,-6.518483205,Li4Cr3Fe5O16
mp-784630,0,-0.069426877,9.444209841,0.011303561,-22.62713665,-7.542378883,Ni2Mo
mp-690495,1.0029,-1.842779862,5.262465349,0.018537383,-92.25379139,-6.589556528,Fe5SnO8
mp-23053,2.6516,-1.067218677,6.44345442,0.046226009,-38.70415271,-3.225346059,PbICl
mp-973666,0,-0.783370065,5.099355016,0,-85.38953722,-6.099252659,KV5Se8
mp-27660,0,-1.244277945,4.208680024,0.091775201,-41.41187516,-5.915982166,Ba(FeS2)2
mp-557381,0.5334,-3.007596978,6.046292983,0,-328.556425,-7.822772024,Rb3U3Ge2O13
mp-971718,0,0.1893905,9.898125343,0.1893905,-12.20999963,-3.052499908,ZnBi3
mp-29387,0.0145,-0.348715732,4.095422733,0.006251223,-97.5769818,-2.710471717,K5SnBi3
mp-510545,5.2395,-2.114561549,2.161659486,0,-433.1150969,-5.698882854,K2BeH4(SO5)2
mp-2847,0,-0.589312945,6.998729659,0,-136.9123292,-6.845616459,ErB4
mp-541156,3.1985,-2.043550588,5.721991013,0.006495303,-266.5197051,-6.345707265,Ge4PbO9
mp-677716,1.8815,-3.043971488,1.963365143,0.083231962,-564.1917597,-7.052396996,RbAl3Cd(SiO4)3
mp-19318,1.8721,-1.319311741,5.885335256,0.000312289,-78.25906632,-5.589933309,Ag2MoO4
mp-781051,0.2919,-1.960993737,4.348022093,0.094714019,-116.66107,-5.833053501,Li5V2Ni3O10
mp-29652,0,-0.656144331,7.281432002,0,-99.7941308,-6.237133175,TaSe3
mp-30644,0,-0.456466562,10.34206051,0,-125.6654004,-7.854087528,Hf3Nb2Ga3
mp-27835,0,-0.891316468,4.252865314,0,-31.23329646,-3.470366273,K2OsBr6
mp-14734,6.1156,-2.348585794,3.128373793,0,-130.801776,-5.450073998,CsCOF3
mp-19934,0,-0.841224283,8.863327118,0,-48.35747982,-5.373053313,CeMgPt
mp-17593,0,-0.361052399,13.82819648,0,-152.067887,-9.504242939,Ta5Ge3
mp-850952,0.0348,-2.466983481,3.145884086,0.054155215,-252.5263566,-7.427245783,Li2Mn3(BO3)3
mp-28704,0,-0.118393996,6.830087168,0.051359309,-106.6381973,-7.617014093,Cr4As3
mp-9970,0,-0.827544122,5.043778236,0,-25.22074301,-6.305185753,ScGe
mp-504304,0.1268,-2.189527866,3.243665522,0.06061956,-174.5976604,-6.235630728,LiCuPO4
mp-696983,4.9365,-0.276818659,1.972823643,0,-75.04344629,-3.126810262,KGaH4
mp-867787,0,-0.152065336,8.098223407,0.007855662,-10.25693709,-2.564234273,RbTl2Bi
mp-8717,1.1227,-0.913881551,3.710227067,0,-45.48144155,-4.548144155,Rb2MnSe2
mp-2163,0,-0.925863057,11.16058753,0,-13.77672582,-6.88836291,HoRh
mp-757788,0.8599,-2.571591995,3.004229757,0.114444535,-261.3318548,-7.25921819,LiNb(PO3)4
mp-778822,0.099,-2.013364688,2.853040245,0.006588908,-220.5884716,-6.487896225,Mn2(SO4)3
mp-694868,2.4234,-2.859459607,3.713816014,0,-550.3340626,-7.241237666,Rb2ZrFe(PO4)3
mp-5372,0,-1.080137525,3.158692235,0,-41.45150102,-5.181437628,RbFeS2
mp-1868,0,-1.233166011,5.071600998,0.063334062,-60.03982359,-7.504977949,VS
mp-865516,0,-0.390691598,10.76080654,0,-36.05954973,-9.014887433,YPaRu2
mp-541433,2.7121,-1.571885285,7.651495862,0.008057178,-292.9606559,-5.231440283,Cd(BiO2)2
mp-30171,0,-0.652603269,14.32987017,0,-384.2287951,-7.389015291,Ho4Ge9Ir13
mp-31352,3.9208,-2.370672653,5.47055761,0,-181.660949,-6.487891035,Er2(SeO3)3
mp-29118,0,-0.923424573,11.32191007,0,-105.4349487,-6.589684292,Ho3Ge3Ir2
mp-757197,4.0231,-4.000866338,5.695996972,5.24E-06,-357.4990035,-8.937475088,DyY3O6
mp-369,0,-0.435038378,5.062408575,0.00239231,-52.83578323,-4.402981936,TbAl3
mp-770800,0,-2.874422479,4.716310689,0.072633585,-229.995441,-8.214122892,Li4Ti3Nb5O16
mp-568511,0,-0.625997476,7.463903133,0,-280.1200908,-6.832197336,Ca7(B7Rh10)2
mp-20687,0.1175,-2.923609304,6.644091757,0,-143.5091577,-7.175457885,Sr2LuRuO6
mp-1009493,0,-0.670021161,15.5089282,0.62680295,-22.2333702,-11.1166851,NpN
mp-543011,2.0396,-1.127814422,3.98470059,0.012488932,-48.95011944,-3.496437103,ZnS
mp-764224,2.445,-2.56078985,2.534640409,0.063113392,-141.5044411,-6.43202005,Li2V2O5F2
mp-22551,1.7729,-2.789368673,6.026120301,0,-227.2412216,-7.574707386,UP2(PbO5)2
mp-7535,4.7971,-2.506414395,2.165834696,0.003383799,-110.5155423,-5.525777115,Li5AlO4
mp-1019534,3.6891,-3.466194818,3.50704864,0.00059359,-352.3850021,-7.341354211,BaAl4O7
mp-504567,0,-1.526489589,5.053171459,0.025519437,-84.28946806,-6.483805235,Mn3(CuO4)2
mp-770907,2.4647,-2.884400032,8.081110347,0.053594271,-241.838013,-9.301462037,Gd2W2O9
mp-760786,0,-2.013898486,3.329653801,0.032901156,-127.9244987,-3.997640585,Li2Cu3F11
mp-972408,0,-0.394155417,10.66181823,0,-39.03304508,-6.505507513,UBiTe
mp-866281,0,-0.707075495,11.23326186,0,-26.40728544,-6.60182136,Er2PdRu
mp-19378,1.6688,-1.687745159,6.280759457,0,-25.65618845,-6.414047113,CrAgO2
mp-769390,4.2126,-3.477428719,5.388110148,0.030685124,-217.4713871,-8.364284119,Ca3Ta2O8
mp-18765,2.6239,-1.226651656,3.735595989,0.027654148,-41.75429639,-4.175429639,Na2NiO2
mp-766888,0,-1.791364656,5.352166575,0.081164323,-210.9140531,-6.026115802,Sb9PO25
mp-19315,2.1988,-2.782330956,6.261624915,0,-145.2738653,-7.263693266,Sr2MnWO6
mp-675208,0,-0.480123057,6.680360847,0.076420832,-207.2136703,-7.145298976,Co(Mo3Se4)4
mp-16304,0,-1.356549071,9.034147076,0,-22.00365461,-7.334551537,YPPt
mp-778509,2.6114,-3.003191484,3.239400451,0.071190109,-114.3311432,-5.716557162,LiVF3
mp-1780,0,-1.042525582,7.244992194,0,-15.76452614,-7.88226307,ScRh
mp-2486,0,-0.109956714,11.77880478,0,-30.07421353,-10.02473784,UC2
mp-568885,0,-0.409294216,6.915492985,0,-119.1084509,-3.970281697,Ce2Ga12Pd
mp-978266,0,-0.522742391,7.705821683,0.006006416,-12.62929521,-3.157323803,Mg2ZnPt
mp-754768,1.3984,-2.470267706,9.924451985,0,-156.2528766,-7.10240348,Tb2Pt2O7
mp-777488,3.9819,-3.022501231,3.041218402,0.028377043,-100.3981239,-5.019906194,Li3FeF6
mp-3907,0,-1.072899065,12.23860703,0,-38.51019463,-7.702038926,Er(SiIr)2
mp-1009878,0,0.413954091,6.781931987,1.221469495,-16.94508736,-8.47254368,ZrC
mp-26172,0,-2.417857197,3.28707715,0.088000192,-179.4173215,-6.900666213,Sn(PO3)3
mp-672374,0,-0.206765217,11.70724852,0.031268905,-27.6863675,-6.921591875,UNi2Sn
mp-754462,1.0068,-2.153644964,4.392366196,0.086137572,-76.63656392,-4.257586884,SbTe2F6
mp-777624,1.551,-2.249572176,5.178546858,0.093151036,-323.6932704,-6.887090859,Li9V3(WO4)7
mp-978984,0,-1.066945775,13.02310225,0,-22.46395413,-5.615988533,TmMgPt2
mp-605333,0,-1.492013229,6.521136719,0.053133627,-193.0499849,-5.362499582,In2Cu2O5
mp-759680,3.6451,-2.754146022,5.077513017,0.037641668,-139.1136066,-6.955680329,LiSi2BiO6
mp-557802,4.6976,-3.121220293,2.464810868,0,-491.9053388,-7.233902041,K2Be(Si2O5)2
mp-1098,0,-1.173446123,8.692655135,0,-56.54599907,-4.038999934,Yb4As3
mp-2070,0,-0.786616691,4.895914562,0,-65.59472594,-5.466227162,CoS2
mp-775820,0.9737,-2.145241889,4.334977026,0.056484713,-373.2145898,-9.330364744,Ti2N2O
mp-973741,0,0.196093329,7.20024152,0.196093329,-14.85778469,-3.714446173,LiHo3
mp-559655,5.7734,-2.066886748,2.014605524,0.009729465,-293.6509656,-6.117728449,PNF2
mp-25380,0,-1.750060699,3.488984785,0.118269799,-80.17144482,-5.726531773,CuPO4F
mp-677164,2.2101,-1.559319049,5.881410105,0,-104.0442744,-4.7292852,CuAs2Pb6Cl7O6
mp-505319,0,-1.477490969,4.825305111,0,-99.69026595,-3.560366641,PtF6
mp-763002,1.2379,-2.308080838,4.187957028,0.087288875,-140.7725796,-5.865524148,Fe4O3F5
mp-766238,1.6015,-2.349885972,5.58827923,0.004783693,-391.8066668,-9.79516667,Zr2N2O
mp-30342,0,-0.362949105,9.629850892,0,-14.43906369,-3.609765923,HoInAg2
mp-980053,0,-0.873745734,11.89362169,0,-16.35474551,-4.088686378,YbPrAu2
mp-555464,0,-2.551169887,3.615837638,0.014112108,-40.79265541,-4.079265541,KRb2NiF6
mp-23837,4.2178,-1.805338964,3.40384356,0.049633087,-90.98862398,-6.999124922,NdH3(CO2)3
mp-867805,0,-0.272569458,2.481137548,0,-10.03350872,-2.50837718,LiCa2Ga
mp-2495,0,-2.35139547,5.86521482,0,-12.95089093,-6.475445465,PrS
mp-639138,0,-2.143892066,4.296140139,0,-162.3063185,-6.762763269,EuSeClO3
mp-1020013,5.536,-2.237188051,2.28906243,0,-259.7550291,-5.903523388,Li2S2O7
mp-778086,6.4213,-4.25419421,4.475675262,0.079573689,-432.3058098,-6.35743838,Ba3Y2F12
mp-639682,5.6453,-3.260192029,1.559638178,0.028958987,-236.5872364,-7.886241212,SiO2
mp-213,0,-0.676106028,5.503292802,0,-8.5326488,-4.2663244,CaPd
mp-649470,3.4786,-1.576759564,2.484179486,0,-1052.775184,-6.41936088,K3Nd2(NO3)9
mp-637308,0,-0.52542833,7.444490999,0,-91.80647025,-5.737904391,Ce5Sn3
mp-768422,4.8209,-3.081909282,7.501266923,0.010575874,-113.9935298,-7.12459561,TmHO2
mp-3522,0,-0.27351049,5.728515375,0,-10.65150492,-3.55050164,MgCuSb
mp-773089,0,-2.878439407,3.457699404,0.033672998,-294.8698284,-7.759732326,K3Li2Nb6(PO8)3
mp-8963,2.1558,-2.46135697,5.438488687,0,-25.00616988,-3.572309983,Cs2HgF4