id,band_gap,formation_energy_per_atom,density,e_above_hull,energy,energy_per_atom,pretty_formula
mp-780044,,,,,,,
mp-568560,2.3494,-0.8842219849999999,6.0557510798599425,0.0,-5.76702343,-2.883511715,TlBr
mp-625941,1.9116,-1.2977473614784616,2.970902130089808,0.0887783836538647,-64.92642941,-4.994340723846154,Te(HO)6
mp-6257,3.303,-2.9083247402097703,3.679847434405783,0.0,-157.82545782,-7.891272891,CsNb(BO3)2
mp-768674,1.5144,-1.0535494237874594,4.325548257999138,0.0,-200.58401993,-4.775809998333334,Cs4Zr3Se14
mp-6467,0.4929999999999999,-2.3972616709077386,2.9449509656849755,0.0,-152.07404547,-6.33641856125,Na2CuP2O7
mp-770025,,,,,,,
mp-697268,2.8033,-1.148651471853542,3.4877245109247004,0.061563922863166816,-341.30938092,-5.332959076875,AgH2SNO3
mp-5598,2.927,-3.541748752458332,6.729963633137107,0.0,-39.10842952,-7.821685904000001,Sm2SO2
mp-771525,,,,,,,
mp-984052,1.7477000000000005,-2.5082324878571427,5.823571772419849,0.0,-169.64183501,-6.058636964642857,Ba(LuS2)2
mp-557577,3.6385,-3.051162176750001,2.836141923526256,0.0,-179.79042767,-6.9150164488461545,K3ScSi2O7
mp-759925,1.4529,-1.2498608595093417,5.739463396210321,0.0,-348.18860806,-4.5814290534210524,Zn2Hg2H2Se2O11
mp-753260,2.8324,-2.5780837102083334,5.827897942458699,0.00019057999999994024,-26.57220194,-6.643050485,LaAgO2
mp-8873,4.5230000000000015,-2.5043436599999995,3.5250505835989263,0.0,-47.71889262,-6.81698466,LiGeBO4
mp-715590,,,,,,,
mp-761683,3.2426,-2.3948121227777768,2.6017096759984764,0.046798158888888615,-103.35983168,-5.742212871111112,Na4TiO4
mp-779191,,,,,,,
mp-560860,1.4386,-1.5150644331250005,6.854523023963144,0.0,-122.0909469,-5.0871227875,Na2PtO3
mp-15221,1.9682,-1.3967631365625,3.2074925301125354,0.0,-82.45528883,-5.153455551875,Rb2NbCuS4
mp-643829,5.5699,-2.859367120874285,3.591333083079129,0.08375133964284665,-197.62773947,-7.0581335525,AlSiHO4
mp-22982,0.4641000000000002,-0.6081898859375006,6.251850816507032,0.0,-69.45744931,-4.341090581875,CuBiS2
mp-28589,2.8833,-1.192070713125,3.5578062467031835,0.01612555333333443,-151.75983926,-3.1616633179166667,Rb3Ge2Br7
mp-559361,,,,,,,
mp-780158,,,,,,,
mp-762173,,,,,,,
mp-755684,3.5008,-1.6282427157407406,3.7494666780457178,0.03854753166667013,-58.97329111,-3.2762939505555555,SrCa2I6
mp-769716,,,,,,,
mp-768311,3.0787999999999998,-1.3535047457716378,4.61632535525617,0.03367799159722296,-153.79751658,-4.806172393125,Cs3NO4
mp-30456,0.5752999999999999,-0.8283365794444446,5.6933124370514525,0.0,-39.879320899999996,-3.3232767416666666,SrLiBi
mp-561095,4.1635,-3.3185442127529168,6.718218736544218,0.0015738657812516266,-229.58860829,-7.1746440090625,LiHo3Ge2(O4F)2
mp-18852,4.3941,-2.213871205714285,3.4622907377447008,0.0,-84.83768293,-6.059834495,Na2MoO4
mp-31785,,,,,,,
mp-565639,,,,,,,
mp-770545,0.653,-2.52270296202381,3.637600115462896,0.1707721901479058,-191.74451505,-6.848018394642858,LiAlCrO4
mp-636368,0.23509999999999964,-0.2384327631249992,6.809894203032001,0.0,-74.02919141,-4.626824463125,Ga3Fe
mp-19692,,,,,,,
mp-32065,,,,,,,
mp-23024,5.0003,-3.226366219285556,4.555674869035287,0.0,-28.85211317,-4.808685528333333,SrBrF
mp-652366,2.4043,-1.6962936651785714,7.223126420612491,0.011852262834815441,-668.72814362,-5.970786996607143,MoPb5O8
mp-25078,,,,,,,
mp-565683,,,,,,,
mp-616190,0.9844,-0.41970587332386333,8.615723153173079,0.0,-270.59648347,-6.149920078863636,Tl2(ReSe2)3
mp-998711,3.3842000000000003,-2.3276533007139997,5.225375476178394,0.0,-45.75816291,-4.575816291000001,TlGeF3
mp-778152,1.8069,-2.3655311621590918,7.9321540155788215,0.0,-161.09450939,-7.322477699545455,Sc2Pt2O7
mp-780925,,,,,,,
mp-754162,3.0626,-3.2130719047916685,5.867138692103152,0.008417619374993635,-149.31465459999998,-9.3321659125,LiGdO2
mp-777672,3.0807,-2.8470738210473336,3.283862622387561,0.08750032299999777,-52.284478799999995,-5.22844788,LiFeF3
mp-25623,,,,,,,
mp-27657,5.638999999999999,-3.0763971279605262,2.793525090700772,0.0,-596.91653963,-7.85416499513158,Ca2B6O11
mp-31033,5.3947,-4.150285777285334,6.888961752179807,0.0,-218.34488515,-7.2781628383333326,HfF4
mp-8708,1.9355,-2.052464715259394,5.576466550074573,0.0,-84.17234387,-3.8260156304545463,Mg(AuF4)2
mp-755213,4.1309,-2.8237921495833334,7.032471706667797,0.0,-150.48928899,-7.524464449500001,YbCO3
mp-776691,2.7168,-3.0451234560777776,2.703670640441705,0.06943996958333543,-381.08789203,-5.292887389305554,Li3VF5
mp-759287,0.21419999999999995,-1.850241286279762,4.367008688340233,0.10213469937500186,-47.30521422,-5.9131517775,LiCu2PO4
mp-38771,1.3720999999999997,-2.1979802079761908,5.331667837846987,0.10963748357142933,-118.05392264,-8.432423045714286,Gd2MgS4
mp-868128,,,,,,,
mp-775705,1.3985,-2.1935819073809526,4.731246171746337,0.2348955903571355,-181.96251406,-6.49866121642857,Li4Ti2Fe3Sn3O16
mp-768786,2.6536,-1.4942287415476194,4.3499744944141385,0.09775258642857264,-105.85876801,-3.7806702860714285,BaYI5
mp-32104,,,,,,,
mp-683991,0.3189000000000002,-0.5970281812132361,6.182387282192899,0.03095859568627635,-293.39552033,-4.314640004852942,Cu4Bi4S9
mp-744206,,,,,,,
mp-558128,3.6165,-3.37226252605,5.517636552294066,0.0,-159.88921696,-7.994460847999999,KNd2NbO6
mp-684021,0.6013999999999999,-0.6333947189402164,4.4843557894543915,0.05941969021739003,-200.92024847,-4.36783148847826,Sn4Sb6S13
mp-765957,,,,,,,
mp-627606,1.5007,-1.8240214212747359,2.2772772289274483,0.07176510000001013,-237.50510034,-6.250134219473685,V3(H3O5)2
mp-764292,,,,,,,
mp-757077,0.21130000000000004,-2.7930700186155915,2.8372198571196288,0.11109804338710028,-222.65619877,-7.18245802483871,Li2Cu2Si8O19
mp-18889,0.9691000000000004,-1.2515388031250003,5.8866365463898385,0.0,-85.78583128,-5.361614455,VAg3O4
mp-31064,5.6619,-0.3789262649164701,0.8888074326471394,0.0,-173.73585831,-5.1098781855882365,B6H10N
mp-18256,5.1537,-3.0312321882870368,2.820459999705123,0.0,-260.24796062,-7.229110017222222,Mg2B2O5
mp-777912,,,,,,,
mp-23569,1.5625,-1.2997802043716074,3.7946818033760903,0.0,-107.75641931,-3.848443546785714,AsSe6IF6
mp-600084,5.5489999999999995,-3.2641205729166662,1.842223807127276,0.013877096249999,-758.62666596,-7.90236110375,SiO2
mp-754334,4.1184,-3.2113010952083334,6.989227423770141,0.0157012424999996,-54.24763344,-6.78095418,NaTmO2
mp-9535,2.5678,-2.699594339347826,4.133095106891767,0.0,-142.28022246,-6.186096628695653,Al6Cd4TeO12
mp-758996,4.9853999999999985,-1.6328289080408522,2.3719966279125173,0.016308135021933626,-312.43205719,-5.48126416122807,Zn5P6H22(NO11)2
mp-7738,1.7263000000000002,-3.1551432661779164,6.125472564787412,0.0,-38.63579703,-6.439299505,LaSeF
mp-555825,4.6001,-3.167741165815218,2.971354911715025,0.0,-670.63636303,-7.289525685108695,Na4Sc2Si4O13
mp-8932,1.2768000000000002,-0.4677410816009854,3.4395422255115586,0.0,-40.75894506,-4.075894506,Cs2SiP2
mp-21554,3.7225,-2.3834772798525856,6.824894587908799,0.0,-274.44872794,-6.534493522380951,P3Pb5O12F
mp-1153,3.4112,-1.5572345521527782,1.6295510137295215,0.0,-11.96253923,-3.9875130766666667,Li2S
mp-743,4.1736,-0.42955488365999983,2.6340639743416165,0.0,-53.11234034,-6.6390425425,RbN3
mp-650929,2.1933,-3.3493587154583326,3.6248292018974446,0.033397428583318955,-254.82832694,-8.494277564666668,Na2Ti9O19
mp-778341,,,,,,,
mp-770041,,,,,,,
mp-764614,,,,,,,
mp-764369,,,,,,,
mp-570411,1.646,-1.0743202487866848,2.936165410050737,0.0,-300.00289538,-3.2609010367391305,K12In2Se9
mp-6488,3.0609,-2.5764723308437505,3.2973449582909904,0.0,-444.0325267,-6.9380082296875,KTiAsO5
mp-32024,0.9589000000000004,-2.3750675050972303,2.8923415154083525,0.20256220680555792,-270.75534902,-6.768883725499999,Li3Mn2(PO4)3
mp-540443,,,,,,,
mp-555508,3.5249,-3.383213762371323,2.930447178543925,0.024994239411765484,-238.61188893,-7.017996733235294,Ca11Si4SO18
mp-778622,1.9238,-2.536298055333334,2.8910712548912234,0.09217538199999263,-200.11187706,-6.670395902,Li3Fe2(SiO4)2
mp-29698,2.0193,-2.914744420864547,4.12167816113952,0.0,-373.35845203,-8.485419364318183,Nb3ClO7
mp-776827,,,,,,,
mp-558219,2.9085,-1.2658948379166668,2.229089279333935,0.0,-116.7987169,-5.309032586363637,SrLi(BS2)3
mp-672262,2.9486000000000003,-2.6635437018478267,5.670663349318335,0.009145842934785264,-152.65124768,-6.637010768695652,La3Zn3Ge2SbO14
mp-31508,3.0674,-1.143239542875,5.242923485269196,0.0,-103.46450836,-3.23326588625,KPb2Br5
mp-773760,,,,,,,
mp-680008,0.0,-1.0224421063938511,1.7982112870252762,0.011620460326067672,-481.97956791,-5.238908346847826,P6N6Cl10O
mp-721287,3.2541,-1.4739011748725863,1.900157699050596,0.03770203230603642,-285.24853792,-4.91807824,Na3AsH14SO10
mp-542551,,,,,,,
mp-566224,,,,,,,
mp-690111,,,,,,,
mp-767265,1.8282,-1.6869203437878788,8.695610096753514,0.011409823484821223,-385.72412711,-5.844304956212121,V(Bi5O8)5
mp-19461,4.7864,-2.3977530638461535,5.176050790126501,0.0007067425480711265,-352.05998255,-6.7703842798076925,Na5Nd(WO4)4
mp-6194,2.0893,-2.476882773723684,3.3126560611465092,0.0,-274.35281623,-7.219810953421053,K4UC3O11
mp-778485,2.6626000000000003,-2.5374366924342104,5.391174293622762,0.004396498684198669,-467.68039397,-6.1536893943421065,Ba2Ga6O11
mp-542642,1.4454,-0.685953628171875,4.0079599205880685,0.014077468124998216,-59.900144,-3.743759,KSbSe2
mp-743988,3.5889,-1.475845959392,1.798524541270617,0.098490931749998,-239.25813454,-5.9814533635,Na3CrH14(C3O8)2
mp-763108,,,,,,,
mp-768979,4.3262,-2.7916513941639223,3.212308087498481,0.057492815588235935,-324.7733889,-4.776079248529412,Ba3Y2Cl12
mp-770571,3.7762,-3.3166650480555546,8.453709323622132,0.004657789444443949,-292.38368982,-8.121769161666666,Ho2WO6
mp-767196,,,,,,,
mp-777029,,,,,,,
mp-762824,,,,,,,
mp-755256,3.3122000000000003,-2.4188103677314823,5.267159821758433,0.08084741249999627,-62.15174117,-6.905749018888888,LiBiB2O5
mp-11902,1.4002,-1.3543818477678566,4.836848250313398,0.0,-63.83954427,-4.559967447857144,Ba2GeSe4
mp-763643,,,,,,,
mp-554082,3.1220000000000003,-4.022003294886364,9.224806950261184,0.013834077727265637,-206.08176361,-9.367352891363636,Ho2Hf2O7
mp-722684,5.6447,-2.4785721478860734,2.4832993309079363,0.0,-158.39311298,-6.5997130408333335,KAlP4(H2O7)2
mp-767293,,,,,,,
mp-770617,,,,,,,
mp-540078,,,,,,,
mp-26407,4.1199,-2.561623224727183,3.2567542437419896,0.02179728519444524,-316.38339755,-6.5913207822916675,Li2SnP2O7
mp-767689,,,,,,,
mp-779979,1.9601999999999995,-2.5423830134519987,10.378143438731804,0.004110316500000265,-422.21515561,-10.55537889025,Hf2N2O
mp-578752,0.8611,-1.004215693015873,4.901832930028014,0.0,-159.17100667,-3.789785873095238,Sr11InSb9
mp-31305,1.0253,-1.0923358334276925,4.508945012084644,0.005825178076928506,-202.16184818,-3.8877278496153846,Hf(TeCl)6
mp-755943,2.6263,-1.065864995,4.226084600690428,0.09024886708333256,-72.81311406,-3.0338797525000003,CaPbI4
mp-2133,0.7316,-1.7986594431249996,5.4378644963715566,0.0,-18.20488992,-4.55122248,ZnO
mp-613910,0.4727,-2.6194922983925,4.543539813562659,0.0,-35.01403182,-4.3767539775,BaNiF6
mp-776618,1.8945,-2.434997104791667,4.046568726408661,0.004159185937499643,-110.88146742,-6.93009171375,Li4VCr3O8
mp-755277,2.7605000000000004,-3.427870078068183,7.803387959954304,6.992045454445872e-05,-170.91665405,-7.7689388204545455,Tb3SbO7
mp-766572,5.0338,-1.9600161856773743,2.1132698455758137,0.021393679999970768,-415.80858485,-5.619034930405406,Mg3P2(HO)16
mp-558428,4.3063,-3.453710215853658,4.8596167267701915,0.0068691379268210895,-305.97410971,-7.462783163658536,Ba9Sc2(SiO4)6
mp-16598,3.7556,-3.1053431513653837,3.7195997220340775,0.0,-532.45293478,-6.8263196766666665,K3TmSi2O7
mp-541246,,,,,,,
mp-744260,3.7484,-2.602655453576388,4.36946791089911,0.008730349826384655,-693.37111545,-7.2226157859375,LiLa(MoO4)2
mp-15003,4.6792,-3.5933021465833344,4.141093139230005,0.0,-475.65150281,-7.927525046833334,Ca3HfSi2O9
mp-24912,,,,,,,
mp-540171,,,,,,,
mp-976447,4.0045,-1.8037802564366672,2.320738551741707,0.012748077222223486,-91.76645356,-5.098136308888889,NaCrH8(NF3)2
mp-573710,2.1028,-1.4141327466603808,5.263983464247416,0.0,-51.52351998,-4.2936266650000015,CsTbZnSe3
mp-3188,0.5421999999999993,-1.8949428113888889,6.3238025519759695,0.0,-104.09187578,-5.7828819877777775,Zn(SbO3)2
mp-541403,1.3402000000000005,-0.27580068172268946,7.063837013048938,0.024263948865543842,-76.57743483,-2.252277495,Hg7(P2Br3)2
mp-772497,5.5841,-3.3881497603499984,6.774020303526537,0.04142263150001568,-413.46953818,-8.269390763599999,Er4(B2O5)3
mp-868652,,,,,,,
mp-777010,1.2056,-2.6298621288095245,3.900114080611721,0.10204397687499522,-205.55734114,-7.341333612142857,Li4Ti3V3(CoO8)2
mp-22897,2.7385,-0.8406704916300001,6.256326838500666,0.0,-6.47764196,-1.61941049,HgCl
mp-540550,5.2933,-1.2006700618611117,2.0089112657022654,0.007913087222222616,-164.31962082,-4.564433911666667,NaH2ClO5
mp-774463,2.8011,-2.3382641052857127,2.9640774046781027,3.5021857277499984,-269.91997763,-6.74799944075,Li3Cr2(PO4)3
mp-558011,2.7656,-1.7366511061695455,4.30601457638206,0.0,-225.36809492,-5.122002157272728,Cd2H2SO6
mp-764335,,,,,,,
mp-17187,4.919499999999998,-2.9813279854387758,3.572237479045341,0.0,-189.25965464,-6.7592733800000016,K3Nd(PO4)2
mp-30958,3.0095,-1.2608967942857148,2.6588793321534374,0.0426223702809434,-456.91777255,-5.439497292261906,Ca(BS2)2
mp-769554,2.4153,-2.2295935433928564,2.8153308032374262,0.008967131285715801,-227.19564565,-6.4913041614285705,LiMgCr3(SO4)6
mp-773582,1.2835,-0.5941656497014812,1.7277701698364816,0.0,-172.86786833,-4.801885231388889,LiTe(H3N)4
mp-625452,3.812,-2.2716511128014294,4.474473298197847,0.0023710149999995878,-86.27732665,-6.162666189285715,Pr(HO)3
mp-558749,2.9656,-3.0348960173370347,4.087534086514192,0.0,-27.89752088,-5.579504176,RbMnF3
mp-765195,1.6288,-2.3087243696724995,6.1928629435235525,0.002286801755952084,-55.50781004,-6.938476255,WO2F
mp-530571,2.3778000000000006,-2.0828535285,4.675351740400939,0.011219915166668315,-329.73561455,-5.4955935758333325,Na4Sn3O8
mp-561307,2.7667,-2.588024932961668,5.117091459717182,0.0,-68.39080993,-5.699234160833334,DySCl
mp-765893,,,,,,,
mp-626689,2.28,-1.1180606119480003,3.4028249813126683,0.4063742550000011,-26.29740436,-5.259480872,Fe(HO)2
mp-566784,,,,,,,
mp-40286,1.6796999999999995,-3.4495890968333334,4.7864919549430285,0.03768635405005938,-164.61313899,-8.2306569495,NaLiLa2Ti4O12
mp-864664,1.253,-2.287745530707499,4.241207070229175,0.0,-152.58172240000002,-6.357571766666666,Na3Np(HO3)2
mp-680055,2.3639,-0.5902703606060608,5.055977698965543,0.0017359777272727415,-62.97535191,-1.9083439972727272,CdI2
mp-25679,,,,,,,
mp-755526,1.8972,-3.20504367231,4.573882016169767,0.017808290205255872,-181.12144035,-8.624830492857143,Ba2Ti6N2O11
mp-625614,3.9354,-1.2391737717914286,1.7973318185497558,0.01789607482142852,-260.50260469,-4.6518322266071435,H9BrO4
mp-31039,0.8486999999999998,-1.7968081897794113,4.057292175300974,0.0,-161.85306948,-4.760384396470588,Rb6Te2O9
mp-24502,4.6505,-1.830763484883846,2.794470580781834,0.0,-144.90032543,-5.5730894396153845,ZnH2(SO4)2
mp-580541,5.0722000000000005,-2.47852459137554,3.2356397030133683,0.0,-40.129062,-4.012906200000001,Cs2NaSmCl6
mp-571293,1.5114999999999998,-0.8930602428613281,4.59398871328847,0.0,-307.30655678,-4.8016649496875,Rb2BaNb2Se11
mp-16915,3.3404000000000003,-3.9490202401442858,4.447896955778653,0.0,-189.54012542,-6.769290193571429,BaTiOF4
mp-2310,1.2577000000000005,-0.85994564,6.075567815800625,0.06052290708333441,-49.79804255,-4.149836879166666,CdO2
mp-572951,4.4582,-2.918971641436781,3.2966274226290335,0.0,-484.42783043,-6.728164311527778,CsNaSi2O5
mp-850484,,,,,,,
mp-6526,1.9731000000000003,-2.092397874531251,4.789232541281318,0.0,-96.05248912,-6.00328057,NaGeSbO5
mp-1019601,2.1244,-3.7931148485416655,5.9596055245431625,0.044992173229175585,-224.73239743,-9.363849892916667,CeZr7O16
mp-770647,3.2726,-2.394451391423612,3.2500771525195136,0.08393090583333329,-161.82675228,-6.742781345,Li2SiSnCO7
mp-769552,2.4957000000000003,-2.0072169353482137,3.0431340505670748,0.0033394192103024523,-219.45830759,-6.270237359714287,LiMgCr3Se2(SO6)4
mp-23520,1.8615000000000004,-0.5615838481249997,6.114256019074937,0.056330193124999976,-44.57915788,-2.7861973675,InPb2I5
mp-21365,1.4657999999999998,-0.796258732375,4.40565722206841,0.0,-85.12378631,-4.2561893155,InSbS3
mp-777100,,,,,,,
mp-560260,4.3605,-2.7035299313900865,3.923379178723388,0.0,-316.74028855,-6.598756011458334,CsLa(SO4)2
mp-864954,0.7705000000000002,-1.0595458945233336,6.226042988443881,0.0,-65.17131802,-8.1464147525,MgMoN2
mp-626787,1.5255000000000003,-2.121154200905,3.8029193573351527,0.0,-110.46416229,-6.904010143125,VHO2
mp-13983,1.5971000000000002,-2.0042110652675,4.552367395007563,0.0,-30.99293687,-3.87411710875,ZnPdF6
mp-19584,,,,,,,
mp-626879,0.6553000000000001,-2.0097551169030767,3.0841967343688323,0.1200688982692375,-355.09072841,-6.8286678540384615,V3(HO4)2
mp-762769,,,,,,,
mp-985585,4.6814,-2.063349958902001,2.0103125416932905,0.0275734519999995,-21.5430348,-4.3086069600000005,Li3ClO
mp-771193,2.5467,-3.269793268560606,5.572481685116477,0.09230036500000073,-320.52312228,-7.284616415454545,Ba3Y2O6
mp-699558,3.3377,-2.3757860612162163,3.4075330564220025,0.002361119425680513,-505.02902685,-6.824716579054054,K10Zr3Cd(MoO4)12
mp-764019,1.6073999999999995,-2.466591869166666,4.168697848529584,0.035012286874999354,-208.1764687,-6.505514646875,Li2TiNiO4
mp-19803,0.9134999999999996,-1.860357665,6.6400570925525475,0.0,-72.82947154,-5.20210511,CdIn2O4
mp-27487,2.1793,-1.216949707618666,6.922982979192188,0.0,-33.22139687,-6.644279374,Li2ThN2
mp-765204,,,,,,,
mp-542808,,,,,,,
mp-24130,5.6011,-1.8128210792384412,1.9559894857169435,0.013568769670910363,-125.4173497,-5.700788622727273,CaP2(HO)4
mp-14407,1.3385000000000002,-0.15697668093749995,3.345896388708291,0.021143201445312343,-190.51072579,-2.97673009046875,Rb7NaGe8
mp-673059,3.9330000000000003,-2.4902581781872297,3.698958731888717,0.036122734636355965,-295.90796961,-6.7251811275,LiSbP2O7
mp-765597,2.7666,-1.5550103793641672,2.9810350904394327,0.0,-257.34069505,-5.361264480208334,HS2IO8
mp-1008528,1.0858999999999996,-0.1961027238095232,4.128914746628101,0.06842080925000182,-24.2149861,-6.053746525,B2AsP
mp-996948,1.1067,-1.9280879342857145,3.700986509917167,0.7864830542857089,-382.07068072,-6.822690727142858,CaCr2O4
mp-16461,2.8781,-3.6096134269318174,5.930507089467609,0.03015014795454718,-433.69772707,-9.856766524318182,Gd2Si2O7
mp-1224,1.1911,-0.645726759375,9.849066332352882,0.0,-23.36299203,-2.92037400375,HgO
mp-29410,2.4427000000000003,-1.0857573161805556,1.7698140519166676,0.0,-88.62678434,-4.923710241111111,Li2B2S5
mp-763706,,,,,,,
mp-560978,3.5745,-3.1948166583653848,5.079606213504005,0.00814864282051353,-691.35447856,-6.647639216923077,Ba4Al2O7
mp-770248,0.9401,-2.0802974183730245,2.67938246619179,0.13783699259090287,-306.53105895,-6.966614976136364,LiMnPCO7
mp-541272,3.385,-2.4898054426322744,3.4462222415047106,0.0017663768166613636,-246.29657458,-6.841571516111111,LiGe2(PO4)3
mp-29764,6.691000000000002,-2.5398311671250005,3.155639455717178,0.0,-34.44139134,-4.3051739175,RbHF2
mp-768770,3.8759,-2.3491292851515158,5.404741458612438,0.06873548151515507,-258.87508852,-7.8446996521212125,Mg(ReO4)2
mp-546011,1.2067999999999994,-1.9845462173958337,5.751667963315057,0.0,-49.13578732,-6.141973415,YZnAsO
mp-868758,,,,,,,
mp-672212,1.6992999999999998,-3.0274073631117013,4.202006424403235,0.0,-415.02429506,-8.830304150212767,NaNb13O33
mp-17807,1.7496000000000005,-3.225376060185185,5.678789952109766,0.0010763947222240944,-311.21606103,-8.644890584166667,LiUNbO6
mp-28383,2.4851,-1.2951141178749999,2.026941271790133,0.0,-39.12381669,-3.2603180575,KNaS
mp-560370,2.0163,-0.8468237232142855,5.323567717444705,0.0,-127.44966504,-4.5517737514285725,Ge(PbS2)2
mp-775211,3.6112,-3.3213228374999995,8.836980795795672,0.0,-292.55137024,-8.12642695111111,Ho2WO6
mp-780543,0.5367999999999999,-2.173368183139179,3.9557733512748174,0.09368028615079016,-98.61132275,-7.043665910714287,Li2MnCr3O8
mp-757131,3.3548,-2.4774259937815124,3.242873003000002,0.025081437647055616,-237.41933189,-6.982921526176471,Sn(PO3)4
mp-9785,1.9521999999999995,-3.078446163472221,8.545100200322375,0.01975239666666884,-130.38923665,-7.243846480555555,BaHo2PdO5