id,band_gap,formation_energy_per_atom,density,e_above_hull,energy,energy_per_atom,pretty_formula
mp-6088,1.6692,-2.39929103609375,6.124617108599692,0.0,-52.70206651,-6.58775831375,LaCuSO
mp-4622,7.5985999999999985,-3.382657862346667,2.0599456555861355,0.0,-221.50838486,-5.274009163333334,Li2BeF4
mp-569978,0.4367999999999999,-1.9156123696984613,2.7348686044267065,0.0026282609134709034,-61.24337315,-4.711028703846154,Na2Ti3Cl8
mp-566356,,,,,,,
mp-541297,,,,,,,
mp-28160,1.2876,-1.16842246769,2.500824165124557,0.0,-91.06755872,-5.69172242,Ca3C3Cl2
mp-13334,1.0766999999999998,-1.95211047975,6.556764721817782,0.041387337000000635,-55.49860878,-5.549860878,ZnSnO3
mp-16179,0.5922999999999998,-0.6935364545052081,5.1232288768793985,0.006526578749999956,-68.07468754,-4.25466797125,SrCu2GeSe4
mp-31704,,,,,,,
mp-865274,1.3006000000000002,-0.8565480340625005,5.415851004218209,0.0,-123.88406816,-3.87137713,TlInS2
mp-683899,1.2898999999999998,-0.17610921570684562,3.3503990548937943,0.0,-271.63170392,-4.527195065333333,Cu2P8Se3Br2
mp-18981,3.2271,-2.9777680825833337,5.598383026184084,0.05222733200000018,-69.23722535,-6.9237225350000005,Sr2CaWO6
mp-760484,4.5013000000000005,-3.4995858410833334,6.500362389712636,0.0300235521500003,-82.7787493,-8.27787493,TmBO3
mp-560591,2.7187,-3.3741579414999987,3.5329996009607165,0.0,-308.52270458,-7.713067614500001,NaTi2Al5O12
mp-695608,2.0294,-3.0997858124390247,1.9931760081885368,0.1443568800609798,-580.75525818,-7.0823811973170745,Rb8BaNaAl11Si13O48
mp-2973,3.1727,-2.601336705,5.773558291903875,0.0,-275.92483017,-6.89812075425,Pr3Sb5O12
mp-542448,2.0789,-1.0786585915463365,4.181002754372936,0.0,-95.01056644,-3.393234515714286,Cs3GaSe3
mp-12385,3.4657000000000004,-3.5818271850833328,6.839389212825247,0.0,-83.45405826,-8.345405826,Ba2YTaO6
mp-14795,0.4271,-0.9289282920340912,2.7926108917147143,0.02024586202020151,-75.94513719999999,-3.4520516909090917,K6CoSe4
mp-31521,,,,,,,
mp-558504,3.7606,-2.131614033315,4.202386879580195,0.003276646302072805,-308.95474393,-4.82741787390625,BaZnTeCl2O3
mp-775125,2.2156,-2.3716695522562357,2.9759656813473145,0.24030604595238006,-270.45837654,-6.439485155714286,Li8Fe3Sn(PO4)6
mp-573373,1.6868,-0.9475737214651432,2.1644059423588287,0.0,-105.77535982,-2.6443839955,PICl8
mp-780226,3.8726,-2.620198305535714,3.8712989794646333,0.09528562758928594,-166.96464084,-5.9630228871428566,Li3LaO3
mp-559849,2.986,-2.6460848055357142,4.272222309408426,0.002648154583337892,-348.48718471,-6.2229854412500005,Ca(GaO2)2
mp-773408,,,,,,,
mp-541989,3.0424,-0.6134465549520002,2.1492285746966258,0.0,-30.82339298,-6.164678596,Na2CN2
mp-765890,,,,,,,
mp-706301,4.8339,-0.6772767928133329,2.0321428611030754,0.01937500166666517,-408.63856432,-4.256651711666667,HClO4
mp-769583,1.5116999999999998,-2.404054202333333,3.953202225000542,0.038792038833336484,-212.14680785,-7.071560261666666,Li3VCr3O8
mp-744430,3.1874,-2.117265518424655,3.0654972428695757,0.0029358989743437647,-517.8829125,-6.639524519230768,Mn5P4(HO2)10
mp-778799,,,,,,,
mp-720857,4.410500000000001,-1.7000030067259082,3.3719200650819507,0.005074562204538502,-245.98090129,-5.590475029318181,SbH3SO6
mp-762088,1.6619,-1.8201944129895828,4.050679893885505,0.0,-295.42808995,-6.1547518739583325,K2OsO5
mp-570553,0.7845000000000013,-0.3719368863571425,4.0883100579794185,0.0,-127.92849967,-6.396424983499999,FeP4
mp-757953,1.3234,-3.2065833026470583,5.263866225230843,0.07375733268907503,-153.27898018,-9.016410598823526,ThNb4O12
mp-762709,,,,,,,
mp-567472,0.8797000000000006,-0.08717303043650698,3.664701072934043,0.0037081817361110936,-333.59276836,-4.633232893888889,CuP4I
mp-5461,2.9963,-1.7511208352083336,4.3900063878639255,0.00011834720486092463,-71.66671327,-5.972226105833332,Rb3TaO8
mp-777493,,,,,,,
mp-553988,5.659000000000002,-2.919923653516456,4.202881354693829,0.048276389166666434,-50.96183984,-4.246819986666667,Cs2LiF3
mp-32895,5.787000000000001,-3.2617510381944435,1.2925538385152506,0.0162466309722209,-1137.59878594,-7.899991569027778,SiO2
mp-868565,,,,,,,
mp-554593,4.1046000000000005,-3.738020505833333,8.796439227001601,0.005188823333332593,-111.80585658,-9.317154715,TbTaO4
mp-556506,0.7801,-2.4268681359378816,4.1542320424594035,0.24211643642856995,-64.95577344,-4.639698102857143,MnCdF5
mp-765970,1.7439,-2.502943782833333,5.94280889171924,0.037018683749998615,-211.63284624,-7.054428207999999,Ti3Sn7O20
mp-25182,,,,,,,
mp-713,0.6695,-0.4534596508749997,2.8849031995580448,0.0,-53.40661047,-3.337913154375,KAs
mp-780442,,,,,,,
mp-1019716,4.4902,-2.7412080200632176,2.3144739524653315,0.0,-556.83544833,-6.960443104125,CsLi4(BO2)5
mp-561973,1.0204,-1.6268548878333335,4.769099783254919,0.0,-190.05075044,-5.279187512222221,K(TeO3)2
mp-12341,1.3641,-1.102081782988506,5.017133137791091,0.0,-45.95631122,-3.829692601666667,CsPrZnTe3
mp-775051,,,,,,,
mp-754434,1.1014999999999997,-1.8099022942171428,11.600863314744576,0.07350541678571433,-74.35075912,-10.621537017142858,Hf3N4
mp-771672,,,,,,,
mp-673669,0.8795000000000002,-2.0224084192105263,6.940171552543792,0.039295662105261364,-224.71473089999998,-5.91354555,In4(SnO4)3
mp-868383,,,,,,,
mp-557492,2.0496,-3.6316888295175427,5.0754780441255996,0.04367986601977414,-329.64952787,-8.674987575526316,LiLa5Ti8O24
mp-644324,4.5505,-1.96968012917,2.5133031052020134,0.004431551973688386,-430.97039382,-5.670663076578947,K2FeH4(SO5)2
mp-554335,0.5892,-1.422828941504113,2.474844059198772,0.004874552782254682,-311.47136241,-5.0237316517741935,K2CuH12(SeO7)2
mp-769900,,,,,,,
mp-25176,,,,,,,
mp-771898,4.5796,-2.327718880212438,3.5757895155433874,0.0374087282142872,-154.16195459,-5.5057840925,Cs2SO4
mp-14551,2.2058000000000004,-3.5855616665833323,5.831040857532747,0.0,-155.99888946,-7.799944472999999,Sr2CaUO6
mp-504983,,,,,,,
mp-764154,2.0203,-2.2779276523552383,4.098783423216567,0.08344557321428603,-73.66073576,-5.261481125714285,LiCo2OF3
mp-770997,4.1342,-3.1669471478472224,6.419445573222842,0.008600254166666765,-45.51370977,-7.585618295,Li2HfO3
mp-5854,3.1981,-2.3865199072916665,4.014005056283349,0.0,-91.89769336,-5.743605835,LiGaO2
mp-685633,1.6869999999999994,-3.9120036560264233,6.961117726615478,0.0,-384.85150416,-9.386622052682927,Y10U4O27
mp-28423,1.6077,-0.5142159949374999,4.64388511669417,0.0,-37.5247674,-3.75247674,Ga2TeSe2
mp-773319,0.2201,-1.7295267104935637,4.936720372884191,0.13965343669270958,-156.59185524,-6.524660635,Mn3Cr2Te3O16
mp-763947,,,,,,,
mp-775736,3.0194,-1.0972015427926132,1.800396427850894,0.009877276666666823,-746.26458705,-5.330461336071429,CoPH21N5O7
mp-545974,5.323099999999998,-3.120335327261904,1.8847494063083456,0.010652418333332749,-89.72707106,-7.477255921666668,AlPO4
mp-565994,,,,,,,
mp-743780,,,,,,,
mp-771596,,,,,,,
mp-684833,1.4543,-3.0309477575833337,2.0719158792804744,0.0506351366944422,-308.04586876,-6.845463750222223,Na8Al6Si6O25
mp-781997,5.4745,-1.590879585528512,2.664135855884904,0.06460944044588945,-325.27676761,-5.8085137073214295,SmH10S3N3O11
mp-772438,2.8122,-2.0587411832483005,3.5321237164907826,0.39267320464286026,-351.60301334,-6.278625238214286,LiCoPO4
mp-7478,3.6842000000000006,-3.096892635833333,7.051533111334143,0.0,-26.33449395,-6.5836234875,RbTmO2
mp-1020142,5.4224,-2.7354431757158126,2.679632946720444,0.018252091367519263,-851.60185328,-7.278648318632479,Na2B4O7
mp-561637,,,,,,,
mp-4279,2.6912,-2.5195155982812496,4.865493310495093,0.0053562839999976575,-210.4757525,-6.577367265625,CaGe2O5
mp-8789,1.2134999999999998,-1.8186134130357143,3.3517069510320874,0.0,-34.29082642,-4.898689488571429,Ca4As2O
mp-18986,3.2253,-2.9570567780833326,6.880619749207853,0.0,-69.08652464,-6.908652463999998,Ba2MgWO6
mp-771560,,,,,,,
mp-565192,,,,,,,
mp-1818,7.7173,-3.498003781952,1.9756820850252876,0.0,-28.595610100000002,-5.71912202,SiF4
mp-552120,4.2988,-3.520638952614445,3.832736203695152,0.0,-45.05501592,-7.509169320000002,YClO
mp-867132,4.002,-1.457769953609808,3.69527748023435,0.0,-123.54643941,-4.751786131153846,RbZnH2Se2BrO6
mp-553952,,,,,,,
mp-43134,2.7863,-3.382600106471818,4.926605503033207,0.038069927045455636,-352.71947285,-8.016351655681818,NaNdTiNbO6F
mp-778022,,,,,,,
mp-19460,1.8662,-2.9335703502292283,6.445957232452557,0.2303734413157885,-278.29807326,-7.323633506842107,Ba5Nd8Mn4O21
mp-560409,2.1283000000000003,-1.268608526048194,1.9696897109690308,0.07556472374128642,-824.34204738,-6.061338583676472,P3S3N6F5
mp-757636,0.7509999999999999,-2.4642488462500003,7.2236159468561505,0.0,-300.16958878,-7.5042397195,NbTlO3
mp-767658,,,,,,,
mp-541996,1.7631000000000006,-3.2173752884375,5.78701036526044,0.0061803431250035965,-243.40061623,-7.6062692571875,Pr2SiTeO4
mp-557754,4.0937,-3.1172834335892867,2.7308069619801505,0.0004707502500007621,-160.53352994,-8.026676497,ZrP2O7
mp-582259,2.1867,-0.905689126348888,2.2972306816760977,0.024900136562498787,-130.24594882,-5.4269145341666665,Li7VN4
mp-753508,0.7014999999999998,-0.9070082999305557,3.475017158921804,0.05551955111110907,-48.80857716,-4.06738143,LiCuS
mp-777591,1.2003999999999997,-2.6814279059523805,3.8591727184244315,0.20191700934523205,-207.3304756,-7.404659842857143,Li4Ti5Fe3O16
mp-772391,,,,,,,
mp-768229,0.9149000000000004,-1.0630489637847222,4.170545460732002,0.07260531690476224,-49.00305094,-4.083587578333334,Li2BiS3
mp-759526,1.7255000000000005,-1.618814031211539,8.907080582915,0.03353767753846615,-371.85069119,-5.720779864461539,Bi2O3
mp-30948,3.5236,-1.4891424147115384,5.442566778947494,0.011001592307692931,-267.10493562,-5.1366333773076915,Tb(IO3)3
mp-32443,,,,,,,
mp-25681,,,,,,,
mp-585226,2.4824,-2.330550705785715,3.0340445922885952,0.22872658227777,-261.99643993,-6.549910998250001,Li3Fe2(PO4)3
mp-771060,3.9743,-2.2152152927426743,3.022922311456311,0.01081991766025503,-324.03341403,-6.231411808269232,Na5LiNi2P2(CO7)2
mp-769833,,,,,,,
mp-764572,,,,,,,
mp-23949,3.3134,-0.4667322196719997,2.2749574556018692,0.017967503999999582,-15.03286789,-3.006573578,RbCaH3
mp-24973,,,,,,,
mp-530986,4.5229,-3.1253042935416677,3.4236954624190163,0.12028909887499314,-1132.28174226,-7.0767608891250005,MgSiO3
mp-554526,3.1201,-2.919165221515873,3.391496038378901,0.0036342134722264774,-280.66524849,-7.7962569025000015,KGd(PO3)4
mp-1018089,1.5236999999999998,-1.1661370311718753,3.729530021547963,0.20420503249999955,-14.91529442,-3.728823605,CaZnSe2
mp-775792,,,,,,,
mp-764730,1.9903,-2.5244994956175,3.1817741618675046,0.14910020906249954,-189.92266894,-5.935083404375,Li3VO3F
mp-989512,2.8729,-1.5648199596226668,4.596121850775748,0.0,-32.55521788,-3.255521788,LiTl2InCl6
mp-11006,3.1212,-1.5713376390892857,3.2227189443321334,0.0,-102.43165795,-5.1215828975,BaPS3
mp-851283,,,,,,,
mp-556804,5.068600000000001,-3.2402159334166662,3.9950572314605135,0.004950868999992864,-316.97498699,-7.92437467475,PrAl3(BO3)4
mp-674513,2.0598000000000005,-3.6226590348863636,8.831784620471712,0.2518452268181779,-190.49409093,-8.658822315,Dy3TaO7
mp-765374,,,,,,,
mp-755380,1.8067,-3.8841713071590926,7.403243487237365,0.09068016363636032,-93.52529465,-8.502299513636364,Ce2Dy2O7
mp-28490,1.1627,-0.3160276393377975,6.785806934618112,0.0,-52.92855462,-3.780611044285714,Tl3BSe3
mp-765351,2.9048,-2.3457805112547607,3.4723381361888093,0.09552122669333317,-655.07865554,-6.550786555399999,Li2Sn4P4O15
mp-557401,1.0356999999999998,-1.5815955126041663,4.080404760218547,0.0,-103.58680215,-4.31611675625,Na6PbO5
mp-771876,1.8688,-1.817092725333333,2.7419823006211077,0.0,-386.51220156,-4.8314025195,Li5NiO4
mp-1776,0.7049000000000003,-1.6116495915866669,12.015518885133504,0.0,-32.03130316,-10.677101053333333,UN2
mp-763386,,,,,,,
mp-850094,,,,,,,
mp-766993,,,,,,,
mp-649654,,,,,,,
mp-685003,1.5317999999999996,-1.8447930686562493,7.395125713872682,0.02698456375000013,-231.84345581,-5.79608639525,Tb2Se3
mp-771110,2.4972,-2.527344431529277,3.5165841612728563,0.07478156661111067,-289.11656316,-7.227914079,Li4Mn5P6WO24
mp-558947,5.6491,-3.268246198819444,1.6616503046386375,0.009751470347222124,-1138.53408907,-7.906486729652778,SiO2
mp-19851,0.9892,-0.6975941357499997,4.728224667995381,0.0,-25.87812216,-3.23476527,KInTe2
mp-571166,4.4509,-2.047841333333333,3.1952511427366437,0.0006193516666668232,-22.83367963,-3.805613271666666,CaBr2
mp-23884,4.1388,-2.236808567363333,4.0063986802644935,0.005186918958333564,-95.32719324,-5.9579495775,SrGe(HO2)2
mp-557664,3.0773,-2.7373080753002066,5.3465709948729465,0.0,-43.935255600000005,-4.39352556,Cs2TlBiF6
mp-554435,2.002,-1.8185551891666665,7.037019267762374,0.0,-622.46284056,-6.4839879225,TcBi3O8
mp-768161,5.764799999999998,-2.5199910726352823,2.5045858221856583,0.0956663512272744,-158.82385854,-7.219266297272727,LiSiPCO7
mp-29836,5.2294,-2.357067244456,2.8546626983008525,0.0,-79.22571238,-3.961285619,Na3HoCl6
mp-770154,1.0679000000000003,-2.456270239953704,3.4078765967775118,0.17661653722221793,-255.91227472,-7.108674297777778,Li3V3(BO5)2
mp-763466,,,,,,,
mp-14276,1.7787000000000002,-2.3908532385830004,6.9835600227467145,0.0,-194.46428793,-4.861607198250001,RhPb2F7
mp-557203,3.3637000000000006,-3.616695558333333,5.090274548464527,0.05472995925000035,-328.46124865,-8.21153121625,SrZrO3
mp-766619,,,,,,,
mp-6660,3.6487,-2.8642055878472217,4.304460848857421,0.0,-79.66562882,-6.638802401666666,BaNaBO3
mp-765549,2.2671,-2.894223941015417,2.9699653964097013,0.06488749546874928,-316.37550892,-4.943367326875,Li7CoOF7
mp-734771,5.235200000000002,-1.9354766431607568,2.5854706866296717,0.019636463253446482,-403.63355485,-5.935787571323528,PrP2(HO)7
mp-558208,2.5491,-1.9288348028409097,4.2062767514524735,0.0,-255.94430014,-5.816915912272727,RbInAs2O7
mp-570520,2.5696000000000003,-1.316332708270625,4.987771490309479,0.0,-79.53901801,-3.314125750416667,ZrHg3(SeCl3)2
mp-558759,3.3117,-1.5023901124417245,4.99575176535447,0.007440308663783313,-257.54137383,-4.440368514310345,Cd4Te6Cl6O13
mp-763227,,,,,,,
mp-782664,1.8234,-2.994976766301264,3.985285421424905,0.0941001070833316,-202.14211957,-8.422588315416666,Ti3MnO8
mp-780017,,,,,,,
mp-755998,2.6627,-2.9148699804387515,4.9070558744388615,0.001760047499999473,-155.20800503,-9.700500314375,Zr3N2O3
mp-775440,0.6016999999999997,-1.815764429523809,4.075922459698647,0.2324254230952336,-358.95934272,-6.409988262857143,Li2Cr3NiO8
mp-542972,1.4975000000000005,-1.1895438810943884,2.6540368200585096,0.0,-312.43923157,-5.579271992321429,KNb2PS10
mp-777258,6.2277999999999984,-4.209521873003334,4.492218514349212,0.07322435153846119,-318.9268908,-6.133209438461539,Ba3YF9
mp-775786,2.0242000000000004,-2.5433664847019983,10.392798988950167,0.003126845250001509,-422.25449446,-10.5563623615,Hf2N2O
mp-10942,3.6468,-3.054348312138889,4.318852352438623,0.0,-132.3547925,-7.353044027777778,KNaLaNbO5
mp-17722,3.557,-3.65987481,7.768096684629578,0.0,-222.32234864,-9.263431193333334,PrTaO4
mp-868143,,,,,,,
mp-11607,4.0371000000000015,-1.2140587806457137,3.4113281163508438,0.09951589785714887,-113.15694436,-8.082638882857143,Si3N4
mp-619836,,,,,,,
mp-559184,3.4836000000000005,-2.3567333532749997,5.851679407384207,0.0,-319.43151421,-6.3886302842,Zn2Si3Pb4SO15
mp-556709,4.004,-3.0909122284722224,3.4696205700088703,0.0,-525.13659756,-7.293563855,Na2ZrSiO5
mp-22947,1.0776,-1.6711071978400005,3.0730185228023683,0.0,-37.22839572,-4.136488413333334,K2ReCl6
mp-28602,2.0299,-1.7145056539020005,2.139339569180456,0.0,-18.00871373,-3.601742746,Na3ClO
mp-3163,0.3784000000000001,-2.59996960075,6.869983863154728,0.0,-31.64811022,-6.329622044,BaSnO3
mp-777751,2.4838,-2.758366481740032,2.732715666837837,0.031850236895372135,-642.14205576,-7.466768090232557,Li3Nb3P8O29
mp-510057,1.7664999999999995,-3.0309941381250014,6.581335372765036,0.04870747007054277,-452.28895502,-10.279294432272726,Gd3NbS3O4
mp-18463,3.7028,-2.5225375755102037,3.628279962711317,0.0,-169.17482177,-6.041957920357143,RbZnPO4
mp-764565,,,,,,,
mp-775846,,,,,,,
mp-2843,3.2924999999999995,-2.5930234691266665,4.486182749064526,0.0016749966666695926,-116.89972524,-4.870821885,SnF2
mp-561353,4.2207,-3.745904901580345,3.363825965094568,0.0,-97.70310558,-6.5135403720000005,NaZr2MnF11
mp-17434,6.7047,-3.7597894831604166,3.8451789326747257,0.0,-176.47818762,-5.514943363125,K2SmF5
mp-763596,,,,,,,
mp-765672,,,,,,,
mp-762170,,,,,,,
mp-767853,,,,,,,
mp-755901,2.6098,-3.6767393594318194,6.941242041367457,0.018464660113640008,-188.83628741,-8.583467609545455,Sm3NbO7
mp-30929,1.1261,-1.1716869139423078,7.308125868269402,0.013824931249999395,-221.93248145,-4.2679323355769245,Hg4As2O7
mp-561090,5.5506,-3.2627769962254902,1.6921728667550302,0.015220672941175906,-805.90378776,-7.9010175270588245,SiO2
mp-1019593,1.2295,-2.889880622090335,3.1343630539441762,0.0,-1021.29751041,-7.5095405177205885,Ce(PO3)4
mp-16818,1.4123,-0.8504888404861108,4.675640172276767,0.0,-105.27088784,-2.924191328888889,Rb2Cd3Se4
mp-30533,1.2956,-1.0059760303958332,6.0288251183647406,0.0,-59.414080299999995,-4.9511733583333335,KPt2S3
mp-541267,,,,,,,
mp-5175,1.9147000000000003,-1.995745949375,5.442992398970634,0.0,-20.53822147,-5.1345553675,NaInO2
mp-555629,3.747,-2.1294243633563634,3.1442650135596018,0.0,-171.92328898,-3.9073474768181815,SbTe(ClF2)3
mp-754406,1.1829,-2.301973297738096,3.3800117651703387,0.055894025937503145,-97.45757299,-6.091098311875,Li2CuPO4
mp-560822,,,,,,,
mp-761670,,,,,,,
mp-13949,1.0269,-0.38205744857142826,5.355214311476237,0.0,-22.20998848,-3.1728554971428573,Cd(GaTe2)2
mp-767427,1.4577000000000002,-2.363439568257576,3.227112075326436,0.04927984529547835,-312.84850512,-7.1101932981818186,LiFe2(BO3)2
mp-769494,0.9574000000000004,-2.1248103127857143,2.85676318302295,0.18877542940000414,-319.74678969999997,-6.394935793999999,Na5Fe2P2(CO7)2
mp-560588,2.0728,-1.1402128640624998,3.9954203968978974,0.003290052857143344,-14.0257524,-3.5064381,ZnS
mp-23915,5.0363,-3.2898376901077278,3.2490782865906143,0.01598502975380356,-649.26256745,-7.377983721022727,Ca2Al3Si3HO13
mp-558548,3.2938,-2.5123896064621736,2.371216708557956,0.0,-659.77638838,-7.171482482391304,Na3B6NO13
mp-761840,3.0516,-3.611973714166666,4.890280600740213,0.029926981944450762,-659.86179598,-9.164747166388887,Zr5Ti7O24
mp-755883,4.0169,-3.1599064131250003,6.494886421607817,0.004029671249999645,-54.09993287,-6.76249160875,NaDyO2
mp-10089,0.26160000000000005,-1.052410605555555,5.136328456899452,0.0,-71.16509588,-3.9536164377777774,Ba5Sb4
mp-6413,5.933,-2.940262299497354,3.5010574809873947,0.004900942277778597,-264.08312031,-7.335642230833334,LiDy(PO3)4
mp-764749,,,,,,,
mp-764635,,,,,,,
mp-646116,3.8627,-2.1689588591025637,2.6026361483793323,0.0,-317.17795637,-6.099576084038461,Na3MgC2BrO6
mp-850114,,,,,,,
mp-566717,1.1187999999999998,-2.2128562313690474,4.283603728115561,0.0,-404.99712173,-7.232091459464287,Fe2BO4
mp-675104,5.2611,-2.3572054607893334,2.2148124669316016,0.0,-41.49790414,-4.149790414,Na3YCl6
mp-560107,2.3354,-1.666613162117143,2.9999891623754995,0.04579644051136711,-255.40947322,-4.560883450357143,SbAs3(S2F3)2
mp-762840,2.8049,-2.5042928057175238,2.910437856231121,2.7515542199999983,-395.851361,-6.597522683333334,Li3CrP2HO8
mp-17951,4.680199999999999,-2.824572927860243,4.628633624300481,0.0,-139.16646483,-4.093131318529411,Cs4Zn3F10
mp-558805,3.7653,-2.8145962474305564,3.5962237546226383,0.0,-325.25096516,-6.776061774166667,Na3Nd(BO3)2
mp-542425,,,,,,,
mp-557352,2.7179,-2.0268218537774283,3.4223578359883247,0.0,-420.25465546,-3.5021221288333333,CaP2Xe5F22
mp-560725,2.0215,-1.1427824868749998,3.995620935925742,0.0007204300446432832,-112.28824713,-3.5090077228125,ZnS
mp-28800,0.8646000000000003,-0.5279547698464672,6.3752843061711335,0.0,-90.90193785,-3.952258167391304,K2Bi8Se13
mp-677731,2.251,-2.947106015714286,3.656023613458214,0.0,-288.11276679,-8.003132410833334,Rb2NaNb6(PO8)3
mp-766795,,,,,,,
mp-743741,,,,,,,
mp-780110,1.3988999999999998,-2.449877428840733,2.951842915946472,0.1002295762820653,-356.75727093,-6.860716748653847,LiVP2HO8
mp-31302,4.1731,-1.741530369099999,2.041828444010167,0.08315013525000126,-259.92021615,-6.49800540375,KCO3
mp-770234,,,,,,,
mp-24038,0.5616,-1.6687441844577424,2.1739271427686475,0.006114859435483844,-326.62642103,-5.268168081129033,K2CuH12(SO7)2