id,band_gap,formation_energy_per_atom,density,e_above_hull,energy,energy_per_atom,pretty_formula
mp-558990,5.6047,-2.8503933769448633,2.713496051926336,0.0,-130.66888238,-6.8773095989473685,K2Sr(PO3)4
mp-565780,,,,,,,
mp-28368,1.7705000000000002,-0.9849257905066664,4.841175535471897,0.0,-33.12098622,-2.760082185,TlAuCl4
mp-762525,,,,,,,
mp-850069,,,,,,,
mp-776880,1.4032,-2.24944601720238,3.4102236394059964,0.18496458587499556,-262.16605028,-6.554151256999999,Li2Fe2Ni(PO4)3
mp-730945,5.0878999999999985,-2.458103030452041,2.4796761879893685,0.00690178138890829,-535.79715773,-6.378537592023809,KAl2P2H5O11
mp-774530,2.2143,-3.5107369205487795,4.507200352351278,0.027488388609732798,-697.69796098,-8.508511719268293,Ba4Ti11O26
mp-989189,1.6073000000000004,-1.2486673437500002,5.603226275124792,0.033614963833325184,-27.51518725,-4.585864541666667,SbBrO
mp-27189,4.7516,-1.5538463550981816,1.5978804693012991,0.016113201363636254,-173.57315874,-3.944844516818182,Si3Cl8
mp-557763,2.8046,-3.6533237946590913,6.452418257229866,0.0,-377.24781877,-8.573814062954545,Nd3NbO7
mp-753823,1.7973999999999997,-4.262904502916666,9.199390318986806,0.0051306158333339616,-113.29484169,-9.4412368075,CeTh3O8
mp-759356,5.1434,-1.3875124877212497,1.6155811752062172,0.0,-290.23128667,-4.53486385421875,AlH3NCl3
mp-765097,,,,,,,
mp-559226,,,,,,,
mp-677378,2.5927,-3.0226636497088903,5.058908417250533,0.03887767847221557,-134.77149158,-7.487305087777778,TiNbTl(O2F)2
mp-764996,,,,,,,
mp-766909,,,,,,,
mp-759207,1.2294,-1.5514464068627445,5.790639790464424,0.03001561083333648,-92.79039977,-5.4582588099999985,LiSb(TeO4)3
mp-28178,2.2372,-1.8269044071325,2.3250253040349738,0.0,-134.20747665,-4.1939836453125,NaNbCl6
mp-19411,,,,,,,
mp-23404,3.0069999999999997,-0.5011678862500002,4.974698457012531,0.04941894979166683,-95.95299461,-3.9980414420833337,TlBrO4
mp-1001024,1.7768000000000002,-2.265640312500001,3.135797700848248,0.0030732585714288163,-88.56097377,-6.325783840714287,Y2MgS4
mp-31982,,,,,,,
mp-758245,3.273,-2.4408879756249995,4.634553187929859,0.054053766749999184,-242.69513078,-6.067378269500001,Li3SiBiO5
mp-558329,,,,,,,
mp-773707,0.9552,-2.745813952424893,3.7608658272608304,0.036884169178598825,-213.29706925,-7.617752473214287,Li4Ti3Mn2V3O16
mp-18719,3.2481,-2.6881238852500005,7.263657228553708,0.0,-178.13682556,-7.422367731666667,KLu(WO4)2
mp-504883,,,,,,,
mp-560899,5.5915,-2.324145270035294,2.372989235456977,0.009812794117631364,-446.84844523,-6.571300665147057,CaB3H5O8
mp-556644,,,,,,,
mp-757224,4.1911,-3.4049576022781385,5.044883677963075,0.0,-544.29810965,-8.246941055303031,Th4P6O23
mp-733932,3.5032,-1.2208427295239992,3.262102067136341,0.0,-199.61935590000002,-4.9904838975,InH5(NF)2
mp-13530,3.6932,-2.8108030197222216,6.301927521558696,0.02028822333333391,-86.44734106,-7.203945088333334,SmAsO4
mp-767027,,,,,,,
mp-608106,1.7917,-0.34783767374007923,2.7132797426781865,0.018421933055551957,-153.00268096,-4.250074471111111,P4S3I2
mp-18732,2.7244000000000006,-2.5306457997500003,4.948071791584746,0.0,-147.60440018,-7.380220008999999,TiNiO3
mp-33318,3.3720000000000003,-3.45750419254386,2.4885105440222444,0.0,-407.37118568,-7.146862906666668,Ca11Al14O32
mp-32403,,,,,,,
mp-673644,1.8722000000000003,-2.448738120374999,6.3200400202641855,0.023434937000024192,-255.45113922,-6.3862784805,Tb2S3
mp-9583,4.3556,-2.8819531722514284,3.2055695562968265,0.0,-29.33613124,-4.190875891428571,K2ZnF4
mp-693892,1.1315999999999995,-5.791831513011668,3.741085542264365,0.0,-302.36069973,-9.4487718665625,Sr2CrClO4
mp-778982,,,,,,,
mp-25031,,,,,,,
mp-765363,,,,,,,
mp-756402,4.6373,-3.002647241738333,4.121652257390559,0.020035611874987147,-120.83092489,-7.551932805625,YHO2
mp-558862,4.3844,-2.2956012137857145,3.0616002735596606,0.0,-265.76427402,-6.644106850499999,NaGe4(PO4)3
mp-567575,4.3921,-0.2729125126267825,2.3988785531800625,0.037703013472223816,-269.89664317,-7.4971289769444445,Cs2Na(C2N3)3
mp-13610,1.9585,-2.4197477165175005,5.3205850068632285,0.0,-32.85333269,-4.10666658625,ZnPbF6
mp-676459,5.8457,-4.269670671833,4.207008121272208,0.08325206433333321,-61.57549023,-6.157549023,Ca2LaF7
mp-769794,,,,,,,
mp-566555,,,,,,,
mp-3448,6.9537,-3.5658730069806666,3.0019055669394556,0.0,-24.7983103,-4.95966206,KMgF3
mp-764405,2.1671,-1.9928297858493331,2.63385547837245,0.009653911833326312,-353.5023402,-5.89170567,KFeH2S2O9
mp-755451,3.1272,-2.008927817727273,4.315997810713904,0.06876683068181766,-93.96920671,-4.2713275777272735,BaLa2Br8
mp-29178,4.5803,-2.5924651383925,5.66723844315958,0.0,-144.47564956,-4.51486404875,TePbF6
mp-581609,2.5484,-1.9118542102551013,7.982767727850147,0.0007603229910735365,-169.76268627,-6.062953081071428,BiP(PbO2)4
mp-559057,3.4093,-2.6958803124166666,4.778890925669308,0.0,-313.01814072,-7.825453518000001,NbTl(BO3)2
mp-773128,1.4011,-1.5450900216485504,3.0920597271602572,0.3268945008695763,-227.54911886,-4.946719975217392,Li10Co4O9
mp-561294,1.4759000000000002,-3.018118639062501,4.470805501504684,0.016507689236126666,-91.64701899,-7.6372515825,SrLi2Nb2O7
mp-740736,5.0552,-1.7607563741028565,1.9451248722987435,0.019286380128201053,-616.36284797,-5.926565845865384,NaP3H10(NO5)2
mp-553903,1.7136,-1.6764279091499998,3.2466111435396714,0.01296408453125153,-343.67062154,-4.29588276925,KNa9In2O8
mp-626337,3.5641,-1.4553525921143209,1.9099175807973097,0.04313834166670372,-270.55288502,-5.010238611481481,Sr(H8O5)2
mp-557938,3.2222,-3.7975388708925,4.077358132921794,0.0,-56.26115271,-7.03264408875,HfVF6
mp-558165,2.1067,-1.3360441353800008,2.3734018117783062,0.0888175664062496,-150.20342933,-4.6938571665625,SbC(Cl2O)2
mp-5909,1.9737,-1.9788902219047624,4.560904849519955,0.0,-227.82795761,-5.424475181190476,Zn2GeO4
mp-765269,,,,,,,
mp-540050,1.5585000000000002,-2.203671330409664,3.3455399839164746,0.2499314154411838,-470.45392591,-6.918440086911764,Fe3P3O11
mp-542694,2.5131,-0.8372766673849993,4.733626500106041,0.00777639802083563,-207.29763046,-4.318700634583333,HI3O8
mp-25486,3.0717,-1.1740947545933331,3.3965953713159407,0.0516934185713982,-202.62574750000002,-4.824422559523808,CoH8(IO5)2
mp-4482,2.6577,-2.07187547075,4.706504309094687,0.0,-57.0751927,-5.7075192700000015,NaSbO3
mp-767255,0.8188,-2.463929098659421,2.386231499449869,0.5207633710628015,-273.40616254,-5.943612229130435,Li10Cr(SiO5)2
mp-628773,0.5078,-0.3653104636718752,4.783404908715217,0.0732401824999993,-16.43765477,-4.1094136925,SnSe
mp-560322,2.063,-1.3269297206549997,2.3916368857239294,0.0,-157.83899986,-5.637107137857143,K2RuN3Cl3O5
mp-38152,1.7782999999999998,-1.922001165386904,6.4179925725624685,0.0164156746428592,-77.12500055,-5.508928610714285,Sr(SmSe2)2
mp-991676,0.9817,-0.2915324437500004,6.157085004670352,0.0,-37.30438832,-4.66304854,NbCu3Te4
mp-849246,2.5158,-2.95861583953125,4.641200927701298,0.04055069218749807,-123.18712504,-7.699195315,Ti2CdO5
mp-28196,4.7228,-1.4481293962886663,1.4874311297814504,0.004778929333335569,-292.87318875,-4.8812198125,KH9O5
mp-554443,1.1291999999999998,-1.7262202866727938,3.0691219246551444,0.003493794264711525,-659.37516062,-4.8483467692647055,Na6Se2O9
mp-567543,0.23789999999999975,-1.2982275553799998,5.445825424059549,0.0,-83.18147091,-3.46589462125,UHg3(TeCl3)2
mp-561725,3.8486,-2.613111762191091,3.6908408643934916,0.0,-159.111426,-6.62964275,CsBO2
mp-770524,0.35029999999999983,-2.3092477238754348,4.038899030983527,0.0730457473735111,-200.14900759,-7.1481788425,Li4Mn3V3Cr2O16
mp-3762,1.0305000000000004,-0.9370250578125,3.881407528158781,0.0,-42.76813611,-5.34601701375,VCu3S4
mp-8621,0.9415999999999998,-0.9063139981374996,5.093527180735867,0.0,-19.81509855,-3.96301971,K2PtSe2
mp-770972,0.3289,-1.288615153452381,5.819971354934162,0.009220105357142572,-282.23065354,-5.039833098928572,Li2Ni3BiO8
mp-3283,3.3071,-2.84821546325,4.088579159122786,0.0,-152.23965134,-7.611982567,RbNbO3
mp-753539,3.3539999999999996,-2.1446792716466665,4.297618836755415,0.07135124312500096,-64.91701201,-5.4097510008333325,SbOF
mp-24263,5.2102,-2.234646834851428,2.194285261289542,0.002819083750000395,-191.45197874,-5.982874335625,KP(HO2)2
mp-694981,4.9472,-2.5788195299190124,2.1228194508916727,0.0,-345.94048339,-6.406305247962963,Na4Al3Si3B(HO3)4
mp-776442,2.8288,-1.6045834733333333,4.860851166015257,0.049209373500001874,-148.07165802,-3.7017914505,Ba2YI7
mp-971684,1.1886,0.07477531435428578,1.943884170088256,0.07477531435428375,-235.86708404,-8.42382443,C3N4
mp-28166,0.889,-1.4730578780500003,2.4032814817535795,0.0,-16.57907824,-3.315815648,K3BrO
mp-778420,,,,,,,
mp-771480,,,,,,,
mp-540168,,,,,,,
mp-764618,,,,,,,
mp-744148,2.5078,-1.1819717999683423,2.047723139763725,0.13460699845238544,-466.32702589,-5.55151221297619,MnH8(NO5)2
mp-620652,0.3134999999999999,-0.8845115127210883,3.107832684555964,0.0,-123.47279806,-4.409742787857144,NaSr2AlP3
mp-761819,1.2894,-1.9709903015833323,4.700164064045552,0.06046198231250077,-117.42673814,-5.871336907000001,Li4VFe(TeO6)2
mp-773714,,,,,,,
mp-18376,3.2555,-0.8681558133081818,3.1232083794518037,0.07737025994834745,-300.95385737,-6.839860394772727,KHgC3(NO)3
mp-764222,,,,,,,
mp-773988,,,,,,,
mp-942704,2.7231,-1.8847533307957407,3.170570186018816,0.08777900708333597,-208.18829799,-5.7830082775,LiCoHSO5
mp-567931,0.4898999999999996,-0.21055887799999976,5.226637750254446,0.0,-37.31554313,-3.731554313,InSiTe3
mp-8285,2.1049,-1.97672938475,5.970666956380424,0.03521803083333719,-56.99523113,-5.699523113,ZnGeO3
mp-6474,2.6514999999999995,-3.2774486403055563,5.940852717576687,0.0,-114.92913731,-7.661942487333333,Ba3MgNb2O9
mp-767186,,,,,,,
mp-780204,1.5278,-2.2908687193144828,2.4949259361768066,0.005656189052095861,-316.84407018,-6.60091812875,LiMnP4(H2O7)2
mp-763395,,,,,,,
mp-567553,,,,,,,
mp-505613,,,,,,,
mp-778141,1.0092,-2.4330373439015163,8.089640844627986,0.04119933215910443,-293.37445247,-6.6676011925,Sm2Pb2O7
mp-780485,1.3803,-2.4305292919176558,2.950361311743217,0.11957771320514166,-355.75116781,-6.84136861173077,LiVP2HO8
mp-776139,,,,,,,
mp-29380,0.9645,-0.6857535814499996,3.4297109170093165,0.0,-132.75740577,-3.31893514425,K2Te2As
mp-24128,4.0856,-1.492253408686001,3.721802316489408,0.0,-130.52228396,-6.526114197999999,ReH4NO4
mp-6610,4.1662,-0.3687206144600002,1.953339541120826,0.057329508090279375,-161.14403783,-6.714334909583332,K3Cu(CN)4
mp-530545,0.6203000000000003,-0.41783525381944464,5.311679161604211,0.035440798333333134,-266.94727796,-3.7076010827777783,In4GeSe4
mp-566402,,,,,,,
mp-777615,3.3325000000000005,-1.8879777987132356,3.3128329449276723,0.023639420367646657,-813.76461579,-5.983563351397059,Sb2(SO4)3
mp-32442,,,,,,,
mp-572822,1.6999999999999995,-2.985966631666667,1.931694510708312,0.5259981033333325,-101.37713469,-8.448094557500001,TiO2
mp-24880,,,,,,,
mp-565937,,,,,,,
mp-556655,4.864,-2.920200055833333,2.2734467346490552,0.0,-218.348298,-6.8233843125,Li2AlBO4
mp-32315,,,,,,,
mp-767284,,,,,,,
mp-31321,3.5567,-0.2272609625887494,2.201074058738909,0.0,-271.01010223,-8.4690656946875,La(C2N3)3
mp-756440,1.5498999999999996,-2.4878467430681823,10.361345670758096,0.0,-156.72527495,-7.123876134090909,Er2Pt2O7
mp-752402,3.1007,-1.6755402540277782,4.050169312705271,0.07821719041666686,-79.03091947,-3.2929549779166667,BaSrI4
mp-781074,,,,,,,
mp-30548,5.7706,-2.9505270434322215,4.815191460331838,0.0,-129.70562543,-5.404401059583333,TlBF4
mp-24742,5.18,-1.947322993481733,2.1416754257559654,0.0023591441999943896,-545.25050919,-5.452505091900001,K2MgH8(SO6)2
mp-758096,1.9248,-2.3243776554640005,3.951103741283752,0.03970068860000176,-97.03281493,-4.851640746499999,SbOF3
mp-622482,,,,,,,
mp-753863,1.181,-1.6042800598842588,2.5245907046087344,0.0724287129629646,-102.82284252,-5.71238014,Li2Ti2S5
mp-542843,5.5977999999999986,-2.1815821422058788,2.2272407961848595,0.012043651874998671,-654.45971602,-6.292881884807692,MgB2P2H8O13
mp-8934,0.7657999999999996,-0.4361895781724137,4.242272910493291,0.0,-34.56212747,-3.456212747,Cs2SnAs2
mp-565341,,,,,,,
mp-780154,2.7854,-2.2526504151785187,2.660327860067039,0.09053137645833777,-191.21355492,-5.311487636666667,Li4FeO3F
mp-540255,,,,,,,
mp-28266,0.34529999999999994,-0.4306766407142853,5.431192511642659,0.0,-34.59017717,-5.765029528333333,P2Pd
mp-558817,,,,,,,
mp-680169,4.905,-2.4414606820466918,2.5187911382719035,0.0016624165608414287,-1003.00626014,-5.306911429312169,Na21S7Cl(O14F3)2
mp-761994,,,,,,,
mp-763400,,,,,,,
mp-685353,2.3087,-1.761250497739547,8.562078005582041,0.008910479573163599,-968.24975475,-5.903961919207318,Bi15PO25
mp-21945,0.3814000000000002,-0.3560671252499986,8.924356187108026,0.0,-273.45318989,-6.836329747250001,Ge3Ru2
mp-3372,4.9943,-2.3687119697321424,3.4332709633410152,0.0,-155.9908147,-5.5711005249999985,Rb2SO4
mp-13660,0.9137000000000004,-1.73154289875,3.834303539479449,0.0,-32.62231587,-4.6603308385714275,Ca4Sb2O
mp-776664,,,,,,,
mp-27358,2.8874,-1.032933623705358,3.2650123240778366,0.0,-141.80274266,-5.064383666428571,Se2O5
mp-863408,3.0344,-2.4923385539285707,5.469036749631179,0.06300524404761987,-547.77313969,-6.521108805833332,LiSiBiO4
mp-696965,5.7523,-3.5589553860933107,4.332461394869864,0.0,-51.43342788,-5.143342788,Cs3TbF6
mp-25730,,,,,,,
mp-770711,1.0688,-1.9511877487499991,6.442351756717794,0.0705174731547622,-167.65770587,-6.985737744583332,GeWO4
mp-569337,1.8643000000000003,-0.6083461603409089,3.7535540789477775,0.0,-308.03188595,-3.5003623403409088,Na4Si2Te5
mp-28879,1.1444,-0.9060362179670332,2.522199970114363,0.0,-65.0820714,-5.006313184615385,Ca5P8
mp-541785,1.3837,-0.7498378998749999,3.863443804715497,0.0,-47.92431534,-4.792431533999999,GePdS3
mp-1020059,2.7630000000000003,-0.5226920331344438,4.7102125583475285,0.0,-76.27502975,-6.356252479166668,LiGe2N3
mp-770693,1.399,-2.5739378427595976,3.0682328135271995,0.21001848541666315,-308.24009386,-6.421668622083334,Li3MnAl2O6
mp-23366,0.6409,-1.061346469642857,3.5013260289336525,0.0824744846428569,-92.18606955,-3.2923596267857143,Rb2CoBr4
mp-25023,,,,,,,
mp-764899,,,,,,,
mp-673837,0.7912000000000003,-2.3492737945258617,6.450731724757151,0.020253545977013232,-171.20268517,-5.903540867931034,Ba8Bi4O17
mp-753626,4.5289,-2.7544169308878974,3.247130384092846,0.10380996395833364,-171.9974121,-7.1665588374999984,Li2NdPCO7
mp-2574,3.8856,-3.7875702891666654,5.7995081038980665,0.03624075250000125,-56.80348487,-9.467247478333332,ZrO2
mp-1019508,2.1798,-0.8888849761899991,5.299634929043386,0.011338763124999929,-51.75081415,-6.46885176875,AlGa3N4
mp-841,1.9748,-1.650783011458333,2.258068137543329,0.0,-38.76889738,-4.8461121725,Li2O2
mp-9634,2.1819,-1.0922046790972224,2.800308391617681,0.0,-40.53681176,-3.3780676466666666,Na3AgS2
mp-763739,,,,,,,
mp-865101,0.3515000000000001,-0.4866663820833335,4.737795668573387,0.0,-10.96315062,-2.740787655,NaLi2Bi
mp-631589,1.3230000000000002,-0.9400093924381816,2.2851145868687843,0.11504998383839472,-99.31968132,-4.5145309690909095,VN2(Cl3O)2
mp-761741,,,,,,,
mp-777197,,,,,,,
mp-9910,0.5861000000000001,-1.011004965388889,3.960402150232627,0.0,-81.48252574,-4.526806985555557,K2Pd3S4
mp-771305,,,,,,,
mp-557649,2.2231,-3.2470991922812487,2.9611856526261606,0.0,-364.61918725,-7.596233067708333,K2Ce(Si2O5)3
mp-675531,1.0109000000000004,-1.0533956590625002,5.01278975458115,0.023983678750000514,-32.71640351,-4.08955043875,NaBiS2
mp-868354,,,,,,,
mp-625136,3.4329,-1.5487821326003448,4.037210312295674,0.0,-26.0543018,-4.342383633333333,CsHO
mp-649080,1.9333,-1.612972751483,2.0594551105245413,0.016076196104167106,-351.02339124,-3.900259902666667,Ti2SCl12
mp-769732,,,,,,,
mp-15222,1.6537000000000002,-0.9564410042968748,4.0980990693678585,0.0,-75.5935076,-4.724594225,Rb2NbCuSe4
mp-853168,,,,,,,
mp-9682,2.3407,-1.089508456361607,3.01275601230054,0.0,-103.18615389,-3.6852197817857135,Na3AlSe3
mp-771419,,,,,,,
mp-27375,1.1909,-0.5582827390909092,6.7186041799639,0.022998703693181355,-50.07081044,-2.275945929090909,Tl4HgI6
mp-763983,1.2325999999999997,-2.673089119434444,4.19015634986876,0.004226353888896028,-134.99038079,-7.499465599444443,V2O3F
mp-757290,3.8907,-1.5097316390257116,1.9175815377979266,0.011623433333342705,-490.63944542,-5.110827556458333,MgH12SeO10
mp-505465,2.8936,-1.6507447404166673,6.303674387061885,0.0,-211.30890091,-5.869691691944443,As2Pb2O5
mp-558478,1.4329999999999998,-3.3710070678806257,6.080346106731058,0.0,-368.70798507,-7.681416355625,La3NbSe2(O2F)2
mp-557293,2.8338,-2.5474917210416668,3.932481573131738,0.0,-190.04013914,-5.938754348125,Li2CdSiO4
mp-780889,,,,,,,
mp-762991,,,,,,,
mp-29567,0.8537000000000001,-0.2145687149218749,4.3810245850242415,0.0,-54.34492410000001,-3.39655775625,CuSe2Br
mp-9567,0.8565999999999998,-0.7700335593333335,4.3074663153081705,0.0,-17.22092963,-3.4441859260000003,Ba(MgSb)2
mp-767013,,,,,,,
mp-505685,2.5628,-2.069955763223684,5.143507388838862,0.0059832595394659896,-509.19449758,-6.699927599736843,Nb2Te4O13
mp-29946,2.9055,-1.1508744934225,4.561034746422858,0.0,-64.15755244,-4.0098470275,IO2F
mp-558318,4.0952,-3.1514099246250007,3.6930438211043786,0.0,-581.17308361,-7.264663545125001,Rb2TbGa(SiO3)4
mp-24886,,,,,,,
mp-765131,,,,,,,
mp-30167,0.4892000000000001,-0.8287976783928573,4.801335061530613,0.0,-103.46355495,-3.6951269625,Rb3Os2Br9
mp-4824,0.9143000000000004,-0.4094908461904761,3.454651681982487,0.0,-18.42688402,-3.0711473366666664,NaZnP
mp-558495,,,,,,,
mp-779213,,,,,,,
mp-676629,2.8692999999999995,-4.247771073807471,9.612925858004438,0.04288923659482968,-272.59923599999996,-9.399973655172415,Sm2Th8O19
mp-772416,2.5061,-2.9053722073544974,3.047605039994284,0.002497162465283864,-270.46438509,-7.512899585833334,Li2Ti3Sn(PO4)6
mp-850373,,,,,,,
mp-771227,,,,,,,
mp-505179,2.1641,-1.247086077536153,2.1446675073046726,0.055518140000000216,-119.65603173,-4.602155066538462,NaH6BrO5
mp-555933,4.288399999999998,-2.5351001100744046,4.2731386655775685,0.0,-154.60893377,-6.442038907083332,Na2P2PbO7
mp-19015,2.4242,-2.1340980068750013,3.4665478393209788,0.11195578128121042,-146.83135426,-7.341567713000001,VCrMoO7
mp-676339,3.619,-3.2184622317592586,5.109208879683326,0.2332682008333702,-480.44806973,-8.897186476481481,BaTa2O6
mp-849424,1.3984,-2.0494296651178305,3.0784922583844865,0.07147815142592417,-224.34611152,-6.231836431111112,LiCu2P3(HO5)2
mp-10337,0.7711999999999994,-1.262403744444444,5.987250664974006,0.0,-56.443799600000006,-4.703649966666666,BaYAgTe3
mp-756400,0.5674000000000001,-2.419473553333333,7.846220753920937,0.0,-80.30812557,-6.6923437975,NdBiO4
mp-24985,,,,,,,
mp-765832,,,,,,,
mp-34903,1.5073000000000003,-0.3083609288690479,2.9262032090236847,0.012183428124999729,-36.54884597,-4.56860574625,MgGeP2
mp-766843,,,,,,,
mp-2910,6.9378,-3.65946895546,2.8596417410464285,0.013148547500003716,-64.98997809,-5.415831507499999,KAlF4
mp-38194,5.6457,-4.1880830469244446,5.11031338046711,0.05587113500000029,-24.696539399999995,-8.232179799999999,YOF
mp-16163,1.8172,-3.2389273577083317,7.314836810773762,0.0,-398.47870665,-8.301639721875,Pr3ReO8
mp-850248,,,,,,,
mp-33363,1.9597,-2.1713095678125,3.21300682762508,0.009929091250000077,-48.01243103,-6.00155387875,LiYS2
mp-7977,2.9092,-2.9011944784410915,6.5477064327454535,0.0,-51.4183874,-6.427298425,CsSmO2
mp-29966,3.1443,-0.9743981949400004,1.639205476748097,0.0,-66.1675295,-5.513960791666666,NOF
mp-763132,,,,,,,
mp-4202,4.0969,-3.4568894564285717,3.938727076148653,0.0,-404.72808448,-7.227287222857143,BaAl2O4
mp-23758,6.3547,-0.4567841586355552,1.1904297250411378,0.002218923333332512,-47.18070643,-3.931725535833333,KNa(BH4)2
mp-696989,3.5399,-1.182370305408026,1.7892580847936332,0.07835658497399313,-211.58219062,-6.223005606470588,NaPH5C2SN3O4
mp-677725,1.4896000000000005,-3.1048168817959767,6.408394587288318,0.11524177493534273,-412.46106152,-7.111397612413793,SrLa11Mg3Ga9O34
mp-640889,0.3841000000000001,-0.5226914504761909,7.3846976022946915,0.0,-119.4456854,-4.265917335714286,Tm(CuTe)3
mp-770690,0.5236999999999998,-1.9064841709345517,5.310555900995153,0.02689391800001495,-140.24940882,-7.0124704410000005,Mn3TeO6
mp-23400,3.415,-1.0503745304807688,4.783841652378335,0.0,-118.37913808,-4.553043772307691,In(IO3)3