id,band_gap,formation_energy_per_atom,density,e_above_hull,energy,energy_per_atom,pretty_formula
mp-697683,4.5076,-1.0361564628336726,1.4687045330995212,0.0,-312.74446853,-5.584722652321429,PH8N3O2
mp-29499,0.8759000000000001,-0.4229644839128568,6.2812346946007755,0.0,-288.6521788,-5.154503192857144,Re3Te8Cl3
mp-767203,,,,,,,
mp-775938,2.084,-3.4726947324999995,4.14354703970364,0.03927000249999857,-321.6536157,-8.934822658333333,TiO2
mp-555967,1.8512,-1.0701321116489797,2.32065497163417,0.007988304832588609,-137.30796928,-4.903856045714286,TaP4S4Cl5
mp-851039,,,,,,,
mp-777633,,,,,,,
mp-42264,3.6488,-1.7089549566642437,2.2386574278081,0.023544866923078445,-233.53500056,-4.4910577030769225,K2MnH4(Cl2O)2
mp-763584,,,,,,,
mp-781067,,,,,,,
mp-867757,4.2981,-2.8052678222533327,3.0408881252770783,0.0,-138.00356377,-6.5715982747619055,RbCaCO3F
mp-3523,3.01,-3.6592221113095267,7.128194198909132,0.0111159358928532,-289.75576955,-10.34842034107143,SrGd2O4
mp-567084,,,,,,,
mp-754857,1.5249,-2.4165778244318195,4.756014113758822,0.09518930825756833,-171.47929538,-7.794513426363636,Nb2Ge2O7
mp-757100,0.7140000000000001,-1.042310499479167,3.4362250705334114,0.046958502500000776,-20.13246238,-5.033115595,LiCoS2
mp-10417,2.0361,-1.8943473138749995,3.9826653000427337,0.0,-42.61623745,-5.32702968125,KSbO2
mp-764822,,,,,,,
mp-868583,,,,,,,
mp-565337,,,,,,,
mp-556819,4.030900000000001,-1.8984142153618424,5.189605860311931,0.0,-415.89014687,-5.4722387746052625,Tl2Cd2(SO4)3
mp-676449,0.8347000000000002,-2.8097848380679173,1.9889359724142532,0.11705047800679047,-326.67350174,-6.805697952916668,Na4Al3Si3NO13
mp-13954,5.8839,-3.0613018296822214,3.747213789688309,0.0033575761111119817,-85.30719409,-4.739288560555555,Rb2GeF6
mp-707334,3.6051,-2.426790706040751,2.358035137987636,0.0192613130263144,-240.30714045,-6.323872117105262,K7P6H2NO22
mp-565960,,,,,,,
mp-998749,3.9117,-1.8999027836000002,2.8297012240073074,0.05455036599999996,-17.52015522,-3.5040310439999995,KCaBr3
mp-557359,3.6651000000000007,-2.5235286418932357,4.238990924929508,0.0,-80.06548620000001,-6.1588835538461515,Cs2Al2Sb2O7
mp-361,0.4996999999999998,-0.6495905054166661,6.028164693470715,0.0,-28.78570065,-4.797616775,Cu2O
mp-8217,6.0358,-3.076626942555785,3.8941377418226235,0.0,-42.62125966,-4.735695517777779,Cs2GeF6
mp-18784,2.9768,-3.2186300725000003,5.575186898498187,0.0,-96.60317064,-8.05026422,DyVO4
mp-8511,7.0881,-2.9461941199202384,2.286484144995549,0.0,-60.3864025,-5.032200208333333,PF5
mp-38284,1.7118000000000002,-3.7974082767045454,6.587313709452827,0.07374672840910003,-371.57445622,-8.444874005,Ce2Nd2O7
mp-27017,3.4153,-2.4822053546768705,3.767551789461498,0.0,-365.38082442,-6.52465757892857,LiSnPO4
mp-565761,,,,,,,
mp-773910,3.6141,-3.3631045295312507,7.671494976540612,0.029163973671874288,-247.54209924,-7.73569060125,Er2GeO5
mp-849532,,,,,,,
mp-28232,2.7179,-3.4363960861979166,3.5514942036147072,0.0,-132.21299526,-8.26331220375,MgTi2O5
mp-17569,2.3831,-2.939202989351481,5.771757802557695,0.0,-188.74107211,-5.242807558611111,SmPtF7
mp-780137,0.7046000000000001,-1.8253616656866967,3.1385229332625335,0.6909766549130572,-310.59812068,-6.75213305826087,Li3Mn4(BO3)4
mp-22880,0.44030000000000014,-0.040722639999999664,4.5369173295692065,0.28222246333333345,-11.86531804,-3.955106013333333,FeBr2
mp-757303,2.5823,-2.611953316666667,3.8029265512868657,0.02854377354545523,-334.61700636,-6.083945570181817,Mg17(As3O16)2
mp-556020,7.915100000000002,-3.4944185062139987,2.6897783620343185,0.00555986366668204,-211.75932102,-5.293983025499999,Li3AlF6
mp-773404,,,,,,,
mp-733604,3.0524000000000004,-0.4529505434133332,3.0832070072684132,0.0,-95.64050835,-3.188016945,Ba2Mg3H10
mp-707337,1.7662,-0.2872944817657138,2.4399330482155834,0.0,-161.9036411,-2.8911364482142856,K3H3Pd
mp-556995,3.6443,-3.762486792083332,6.973253381176738,0.028239560166667843,-123.25715036,-8.217143357333333,Nd2O3
mp-767710,2.455,-2.4682175013938483,2.874281154147328,0.22446385713544534,-325.53216759,-6.781920158125,Li2VP2O7
mp-4906,3.2947,-1.7192694086875,4.305945375165998,0.0,-113.34388819,-5.6671944095,Te2SO7
mp-867625,5.7551000000000005,-2.4582373170725003,3.890373332088794,0.014731944062507553,-312.86925099999996,-6.518109395833334,ErH(SO4)2
mp-31832,,,,,,,
mp-779248,,,,,,,
mp-757457,1.6303,-3.2553143504807687,4.895830449575191,0.0311728656043897,-231.539996,-8.905384461538462,LaNb3O9
mp-540862,7.1835,-4.065635979249667,4.054001345202767,0.0,-232.25174686,-5.8062936715,Ba2CaMgAl2F14
mp-560058,2.5912,-2.6897410686698247,2.8676520189621435,0.0040493445612250776,-648.98494658,-6.622295373265308,Li9Ga3P8O29
mp-17850,3.6675,-2.969080079708334,5.29927612451379,0.0,-161.14818023,-6.714507509583334,K3NaTh2O6
mp-773186,,,,,,,
mp-19577,,,,,,,
mp-13055,3.5872999999999995,-3.5167547482500003,6.9124391687999855,0.0,-81.27326634,-8.127326634000001,Ba2LaTaO6
mp-866662,4.6610000000000005,-3.3240358767063327,4.276569145934463,0.0,-216.06185971,-7.202061990333331,K5La4Si4O16F
mp-560478,4.8154,-3.603662473697916,4.126754175951477,0.0,-262.47309275,-8.2022841484375,BaY2Si3O10
mp-13898,5.3058,-3.021670461800207,4.585405769597216,0.0,-44.5947169,-4.45947169,Cs2NaInF6
mp-754730,3.0182,-1.583363632361111,3.348857389473441,0.09492540125000336,-77.14064817,-3.21419367375,SrCaI4
mp-16695,4.129,-2.6079857616160718,2.8789088327599632,0.0,-301.28927057,-6.276859803541666,K2ZnP2O7
mp-646538,,,,,,,
mp-28630,1.6515999999999995,-0.6404050963488879,2.118291299278106,0.0,-121.45373844,-5.060572435,Na3BN2
mp-626094,4.3404,-2.0908613869085717,2.4402358031981533,0.042560337321425834,-326.70249543,-5.833973132678572,Al(HO)3
mp-770932,2.6387,-2.1273388920833334,4.827452546212217,2.772499999981193e-05,-58.82322661,-5.882322661,LiSbO3
mp-29342,1.8419000000000003,-2.2675755119073466,2.2935316153990364,0.0,-31.04625558,-4.435179368571427,Ca3PCl3
mp-31851,,,,,,,
mp-27987,3.4387000000000003,-1.352934956825,2.8769064071391144,0.0,-33.7145739,-2.809547825,BrF5
mp-767905,,,,,,,
mp-558270,2.2857,-0.6401191822876674,1.7381631175324042,0.10609131661876424,-603.92062195,-5.032671849583334,AlS5N5Cl4
mp-558572,0.4130999999999996,-3.5263419335711115,5.543814138540597,0.21811032861110924,-108.35246845,-6.019581580555557,Na2UF6
mp-771629,,,,,,,
mp-540530,2.8598,-2.5324768851378443,2.8036629710163052,0.0303675344912282,-129.77035339,-6.830018599473684,Li2Co(PO3)4
mp-4626,4.171200000000002,-2.67432479075,2.838037674062504,0.024462064000010383,-149.33941166,-7.466970582999999,CaCO3
mp-758179,0.4882,-1.850333178154762,4.3383555366914965,0.10204280750000194,-94.61189871,-5.913243669375,LiCu2PO4
mp-29887,4.8828,-1.1097622065487505,3.1232561535450305,0.0,-154.49326601,-4.8279145628125,Pr(ClO4)3
mp-540636,3.1048,-2.681511666418333,4.75282195186096,0.010396707916679128,-138.49624989,-5.77067707875,WOF4
mp-755165,4.4324,-3.9503863274166666,4.794330517857113,0.028690579124997836,-181.14988722,-9.057494361,YScO3
mp-866739,,,,,,,
mp-566638,,,,,,,
mp-32373,,,,,,,
mp-778715,3.0471,-2.9548876968871274,3.4828952444172803,0.0842121779687508,-380.89990189,-5.95156096703125,LiMn2F5
mp-756131,3.6484,-1.6608257009259255,3.778368528793564,0.02786537638888964,-58.93982188,-3.274434548888889,Sr2CaI6
mp-767263,,,,,,,
mp-560086,1.9759,-1.6605450859210518,4.458491652332457,0.0,-212.30268553,-5.586912777105263,Nd4(GeS4)3
mp-762685,,,,,,,
mp-505012,,,,,,,
mp-976587,1.5454,-0.8083347160925333,2.8947153315194303,0.007070942727271935,-96.82692631,-4.401223923181818,KP2AuS7
mp-773445,,,,,,,
mp-541193,0.9253,-0.6147509748141665,8.568749721520481,0.0,-98.98845279,-2.062259433125,Hg7Cl2O3
mp-754840,2.7119999999999997,-2.579055086666667,6.620651478317679,0.058884394166669914,-97.94655547,-8.162212955833335,TaAsO4
mp-557109,3.725,-2.6252406866666664,3.755106134797279,0.011864031071418424,-284.54973643,-6.774993724523809,Na4Zr2(GeO4)3
mp-540242,,,,,,,
mp-23093,1.7043,-2.7953048820833337,6.449073123469352,0.0,-130.92112746,-6.546056373000001,Sr2NdBiO6
mp-560611,1.6603,-1.7032255871875008,5.875924194259027,0.0011248199999913666,-89.76199049,-5.610124405625,HoCuS2
mp-19156,1.9174,-2.493980114373035,5.5497352557965085,0.000148323499999492,-138.42689651,-6.921344825499999,BaMnO3
mp-540645,0.6193,-0.8038190850385715,7.787038157224438,0.004533378214285122,-140.29322837,-2.5052362208928574,Hg3(ClO)2
mp-553432,3.4458,-3.4628555008333333,2.377210138246033,0.049109234166666134,-80.32485084,-8.924983426666666,TiO2
mp-562613,5.5339,-2.4393427929846934,2.0262565443331195,0.010441410357142187,-196.52119447,-7.018614088214287,P2O5
mp-556524,0.8702999999999994,-2.4694663048863643,5.7065037149544855,0.08656632727271507,-170.14197535,-7.733726152272728,Nb2Sn2O7
mp-773292,,,,,,,
mp-1016884,0.5179999999999998,-2.5907179397499998,4.928537899861229,0.17075147300000548,-32.30756047,-6.461512094,CaGeO3
mp-642821,3.1441,-0.4289806930111111,3.2783529002054594,0.011249307222222171,-58.92322819,-3.2735126772222225,K3H5Pt
mp-7575,0.5083000000000002,-0.4052636913488883,4.770473585896597,0.0,-12.33664672,-4.112215573333333,LiZnN
mp-626620,3.3341000000000003,-1.5694411007899998,3.3159239304484736,0.0,-26.34851901,-4.391419835,RbHO
mp-583414,,,,,,,
mp-753445,2.9510999999999994,-1.9845032212390905,4.619577141269283,0.024653809886370226,-124.82992277,-5.674087398636362,Sb4O5F2
mp-558016,3.7526,-2.9030039668154166,3.6291504756054915,0.0002639906249966017,-99.76422091,-6.235263806875,CaMgAsO4F
mp-849668,,,,,,,
mp-557989,1.1988000000000003,-1.9846409142727284,4.706793344286168,0.017617514659090006,-508.31044577,-5.776255065568183,K3Sb5O14
mp-541164,1.7852,-1.1376387967241377,8.29450505380621,0.012734726465519763,-244.57773205,-4.2168574491379305,Hg9(AsO4)4
mp-24112,4.845,-1.739945098619032,2.5123219861934265,0.0,-324.84192608,-5.239385904516129,Rb2ZnH12(SO7)2
mp-765435,,,,,,,
mp-645172,1.3899,-0.4727695049937146,4.370427003535752,0.0,-188.29415964,-3.9227949925,CsAs2Se3
mp-24277,3.2754000000000003,-2.50044883931605,3.1328515361579408,0.02143423073529238,-478.76263617,-7.0406270025,KGdP2H4O9
mp-16992,0.9287,-0.5701796910416673,5.490070583060514,0.0,-80.70747222,-3.3628113425,NaAg3S2
mp-570227,6.662800000000002,-1.8185469470344449,0.8220215598223801,0.0060322418055536176,-280.86613583,-3.900918553194445,BeCl2
mp-557845,2.4773,-2.0572952258333332,2.2832111705881086,0.0,-136.21966163,-5.675819234583333,Na2TiS2O
mp-3668,0.6472000000000002,-0.0974825292857142,4.428162568198255,0.0,-33.4804325,-4.1850540625,CdGeP2
mp-758836,1.7489999999999997,-2.9978966177777777,3.4275934323964785,0.09857190977779152,-110.25462295,-7.350308196666666,Li4Ti3O8
mp-770830,2.7472,-2.811736679249999,9.240936417965731,0.035854593999999906,-141.05802021,-7.052901010499999,HoBiO3
mp-761480,,,,,,,
mp-561241,2.4477,-2.868935857727391,3.860832969183383,0.0,-489.21846682,-5.317592030652174,USb3O2F17
mp-36864,2.418,-2.9788832261805553,3.41862891174468,0.010792145833335988,-84.64638862,-7.053865718333332,Li2TiO3
mp-767056,,,,,,,
mp-13190,5.8895,-3.0874488785140004,3.6072508344248417,0.0,-45.4973466,-4.54973466,KRb2GaF6
mp-777704,,,,,,,
mp-541175,0.22170000000000026,-1.131113819,4.540348105593188,0.0,-92.34598669,-4.6172993345,Sc7CoI12
mp-26267,0.2531000000000001,-2.455494290401002,2.897389373270114,0.0382993033420993,-508.69029186,-6.693293313947367,Li2Cu(PO3)4
mp-19194,3.8394,-2.6847107324098207,3.999888511430952,0.2418343845454549,-158.95575042,-7.225261382727273,BaMnP2O7
mp-781622,4.3411,-2.3392315503014283,4.499224561221549,0.034248599999997964,-346.81422210000005,-6.193111108928571,Lu(HO)3
mp-4385,2.6292,-1.7757341037500003,4.74460581497517,0.0,-63.49727905,-6.349727905,CdCO3
mp-672376,0.3182999999999999,-1.4150156251308328,3.858685840071177,0.0,-253.53278046,-5.28193292625,Re2Cl7O3
mp-684804,2.2095,-1.7673490534017948,2.176676049816312,0.4699046214871787,-133.97316945,-5.152814209615385,MgC2S2(OF3)2
mp-768081,2.4381,-2.078565209568452,2.7823641924924982,0.22221862499998668,-310.65295811,-6.471936627291666,Na2FePCO7
mp-6800,5.3245,-2.409339576113095,2.274655055583251,0.0,-80.68070115,-5.762907225,KLiSO4
mp-735531,3.9653,-1.225872167865334,2.1618568572024657,0.04742506499999877,-269.64864575,-4.494144095833334,NiH8(ClO2)2
mp-560560,2.5768,-2.555916826916666,4.716857308686336,0.0,-382.15408771,-6.369234795166666,CdSiO3
mp-5795,1.9969,-0.9153909792853326,2.885546619834963,0.0045150348333322645,-25.67515384,-5.135030768,CaMg2N2
mp-762787,,,,,,,
mp-17718,4.7301,-2.6270456333591947,2.786121680943862,0.001501183229162706,-211.73517449,-5.881532624722222,CsKNa2Li12(SiO4)4
mp-776263,,,,,,,
mp-24240,4.6697,-0.5097844102657147,1.8295876159619,0.009038633928571294,-138.15869703,-4.934239179642859,K3B12H12I
mp-11118,1.9664,-1.359517156660381,4.931329966753829,0.0,-50.45468334,-4.204556945,CsPrCdSe3
mp-997023,0.8947999999999999,-0.28759488437500025,3.6467418130940046,0.2819391654166674,-32.98092737,-4.12261592125,CuBrO2
mp-8851,0.3489,-2.642042999626624,4.145290950742582,0.0,-151.253761,-6.875170954545454,BaCuP2O7
mp-868338,,,,,,,
mp-553961,3.3047000000000004,-3.4764540775,4.6278905702052295,0.0,-108.55032097,-9.045860080833334,ScNbO4
mp-25709,,,,,,,
mp-707219,5.1135,-2.476125661034857,2.696564465419919,0.0,-377.2749845,-5.389642635714287,K2Zr2ZnH12(OF2)6
mp-12670,3.06,-3.6372924651249985,7.991776669395263,0.0,-39.31560087,-7.863120174,Ho2SO2
mp-557917,2.2627,-1.977916128293333,3.7558143297668702,0.023715193958341985,-196.97493679,-4.103644516458333,SbI(OF4)2
mp-779228,0.4642,-1.34086855510372,4.4029114182941225,0.06605792784091148,-113.64275057,-5.1655795713636365,Li4MnNi5O12
mp-13287,0.9836999999999998,-2.0333208477975,6.120270974672444,0.0,-37.43062391,-4.67882798875,BaCuTeF
mp-540491,,,,,,,
mp-560378,3.8805,-3.609347811422857,6.095518451067624,0.0,-732.05954903,-8.714994631309523,Ca3Ta4(O6F)2
mp-764452,0.23350000000000004,-2.447612281333334,3.0332316018753307,0.05055267866666746,-97.72169343,-6.514779562,Li3Co2(SiO4)2
mp-763137,,,,,,,
mp-19662,,,,,,,
mp-27420,2.7096,-2.5072369502675,4.20082272034411,0.0,-33.77983579,-4.22247947375,NaBiF6
mp-572794,1.8661,-1.5459003288074025,2.666671050855983,0.0,-220.49127572,-5.011165357272726,ReP(Cl2O)3
mp-31468,1.3786,-0.7783609913488885,2.335579360505664,0.0,-56.783763,-4.73198025,LiCaN
mp-686540,4.769400000000001,-3.0912170069840474,2.968307409306868,0.0,-232.24654535,-6.451292926388889,Na3Al2P2O8F3
mp-862787,1.6052999999999995,-0.6939462384062504,4.533450638386966,0.0,-122.72835111,-4.090945037,AlInSe3
mp-863731,3.629,-1.15270162199,2.271226063616264,0.0,-80.41104538,-4.0205522689999995,InH4NCl4
mp-561197,5.5343,-3.597834478491667,4.8126436639358605,0.0,-162.19013928,-6.7579224700000005,TaF5
mp-510551,,,,,,,
mp-777623,0.2327,-1.9216837870131611,2.58302578266637,0.11833738041564155,-360.81356711,-6.681732724259258,Na4Mn2C4SO16
mp-763719,,,,,,,
mp-770403,0.2124999999999999,-2.6390228065419503,2.9179113861415944,0.0697298160714448,-290.0874518,-6.906844090476191,Li4V2(PO4)3
mp-769268,4.1431,-3.404594349861111,6.036689119669832,0.031576825000000135,-239.50676808,-7.9835589360000005,Sr4Ta2O9
mp-541686,2.7147,-1.4004258465535708,2.33106084345922,0.0,-106.32494915,-3.7973196125,K3GaS3
mp-766989,,,,,,,
mp-541353,1.0322999999999998,-1.2016329549772742,3.7942806310090016,0.0,-269.43423732,-6.123505393636364,K2(TcS2)3
mp-763442,,,,,,,
mp-762680,,,,,,,
mp-10616,0.5951,-0.9469203855555554,4.383811708450823,0.0,-11.3271629,-3.7757209666666665,BaLiAs
mp-774182,2.7214,-2.641373488129251,2.8668973847747017,2.9209596861904754,-285.41382101,-6.795567166904763,Li3Cr(PO4)2
mp-770898,1.1178000000000003,-2.953241029166667,4.146670330830878,0.09382107105656523,-204.89726931,-8.537386221250001,Ti3Nb2V3O16
mp-996965,0.7882000000000002,-1.1161071802083329,7.638430061581112,0.045173615125000836,-39.34941019,-4.91867627375,AgBiO2
mp-767596,,,,,,,
mp-4586,2.4411,-0.7140772466666663,3.9059305508601487,0.0,-29.59481906,-3.6993523825,LiAlTe2
mp-541013,1.0878,-0.7280787619999998,4.3668690052068415,0.0,-35.26296582,-3.526296582,TiI4
mp-775071,,,,,,,
mp-755954,3.6181,-1.688514793148148,3.9984932082411695,0.05048855805555563,-59.27724173,-3.293180096111111,BaSr2I6
mp-772410,2.271,-2.3422421914772733,2.6483809709359303,0.004820128181823868,-223.71306129,-6.779183675454546,Ti(SO4)2
mp-554699,2.7192,-1.9394907784166664,6.075079619610222,0.0,-184.58730887,-6.152910295666668,GePbO3
mp-561972,,,,,,,
mp-765005,,,,,,,
mp-764157,,,,,,,
mp-23347,3.6886,-1.553232344242424,3.9870635683493423,0.0,-63.38268348,-2.881031067272727,Rb4YbI6
mp-558928,2.7339,-0.3951180241266667,2.992892183526603,0.0,-8.16633802,-1.3610563366666666,KrF2
mp-759798,2.9247000000000005,-2.323309799577727,8.433214078096317,0.019864079772735188,-466.30669707,-5.298939739431818,Bi7(O2F3)3
mp-23819,5.2559000000000005,-2.0980347086341147,2.372112298251281,0.008964721914284546,-618.32405358,-6.1832405358,Al2P2H9NO11
mp-765328,,,,,,,
mp-17189,0.3651,-2.9511867322244894,3.556694196661073,0.0,-190.74559144,-6.8123425514285705,K3Ce(PO4)2
mp-541289,1.4880000000000004,-2.472474886208333,3.775544096782929,0.0,-214.28096007,-7.142698669,Y2S3
mp-773280,,,,,,,
mp-752949,3.3206,-2.197597974146668,7.461909808146607,0.0343048933333332,-32.29085181,-5.381808635,BiOF
mp-763724,,,,,,,
mp-767021,,,,,,,
mp-30100,1.6351,-0.5114100340798611,4.205295610871575,0.0,-78.51774937,-4.362097187222221,Li2B2Se5
mp-24359,4.1423,-1.7647263218181255,2.265949687608544,0.01541968040177899,-698.33125484,-5.4557129284375,CaAs(HO)7
mp-555934,0.0,-2.3177567291266663,3.707784655130927,0.5902698716666741,-34.38945325,-5.731575541666667,VF2
mp-23144,1.4969000000000006,-0.7252820395895,7.3727033685428776,0.000993487499997947,-126.87880547,-6.3439402735,TlRe3(Se2Cl)2
mp-850875,1.3410000000000002,-2.44424238247,4.179698780053891,0.0861831300000011,-138.58145698,-5.774227374166667,Fe2OF3
mp-19230,3.0597,-2.063134345285714,2.6339023220907394,0.0008968389285737287,-82.77271937,-5.912337097857143,K3NaCr2O8
mp-565752,,,,,,,
mp-6651,3.9245,-3.502506690914615,4.5665198606994615,0.0,-370.91694658,-7.133018203461537,K2Ta2(OF2)3
mp-766596,3.2753,-3.30934773875,3.0828426192324643,0.046638952361115926,-591.99965289,-8.22221740125,Ti(SiO3)2
mp-775647,,,,,,,
mp-771912,2.2057,-2.1174546316589504,2.5836706865595294,0.06758734324074034,-376.79555611,-6.977695483518517,Li4Cr2C4SO16
mp-771457,,,,,,,
mp-23918,4.7436,-0.19832850491333312,1.9577506630299129,0.0,-36.978461200000005,-3.0815384333333333,NaGaH4
mp-780488,3.0151000000000003,-1.99624876378664,2.2539445883123888,1.3428626067582838,-442.87076928,-6.150982906666666,LiCrP2H5O9
mp-769701,,,,,,,
mp-559773,4.0943000000000005,-2.887779941936274,2.925638222316425,0.0407210629411745,-110.51179347,-6.500693733529412,Na4Sr(SiO3)3
mp-779311,2.9798,-2.365337409791666,2.915697093179996,0.05369965666666498,-165.0145256,-6.875605233333333,LiFeBO3
mp-677028,1.3730999999999998,-2.555155483214,5.262176678559252,0.13343760050000153,-43.80875654,-4.380875654,RbBiF3
mp-1020118,4.558400000000002,-3.209229192041667,3.1334636481409874,0.03636420037499288,-572.85486301,-7.160685787625001,MgSiO3
mp-771055,0.26510000000000034,-3.55513697575,6.538823307394249,0.09344492049999076,-49.35242539,-9.870485078,EuZrO3
mp-561549,4.83,-3.1570993967899987,2.4470645387586853,0.0,-369.70486901,-7.3940973802,K2Be2(Si2O5)3
mp-768006,,,,,,,
mp-778824,1.6659000000000006,-2.204823102083333,6.430053600073443,0.12296413200000254,-136.14156596,-6.8070782979999995,Li4Cr(WO4)3
mp-765123,,,,,,,
mp-559764,4.3828000000000005,-3.609103813447143,5.161500130839326,0.0,-443.59135622,-7.921274218214286,Nd3Si2ClO8
mp-756638,0.8754000000000004,-2.2269730033333324,6.135745483742597,0.013489110238101176,-95.56862899,-7.964052415833333,NbRhO4
mp-31215,0.2188000000000001,-1.5497262194341666,4.735192677908415,0.0,-57.86025311,-3.616265819375,AgPdF6
mp-9539,0.28580000000000005,-3.9118792021822224,4.8896875931812716,0.058781161666665575,-82.08483028,-6.840402523333334,EuMgF4
mp-769880,,,,,,,
mp-565679,2.253,-0.9626776615073532,6.485784725890904,0.014419686454248291,-279.09868582,-4.104392438529412,Hg4Se4O9