id,band_gap,formation_energy_per_atom,density,e_above_hull,energy,energy_per_atom,pretty_formula
mp-691043,0,-2.934757033,6.096546347,0.043704825,-342.8453802,-6.856907604,Ba10Pr5Nb(Sn2O15)2
mp-1971,0,-0.259944522,9.253541928,0,-9.1972431,-4.59862155,HoCu
mp-2531,0,-0.104197281,9.281136908,0,-263.968949,-6.94655129,Er2Co17
mp-14484,5.2973,-2.400810966,2.338174071,0,-322.4647731,-5.75829952,KNaLi2(SO4)2
mp-568966,0,-0.368347899,6.291609137,0,-435.4827889,-7.258046482,NdBC
mp-862631,0.629,-0.934234123,6.830611387,0,-14.98709166,-3.746772915,Ba2SbAu
mp-720379,4.5405,-2.362944982,2.286245656,0.051304116,-319.7478215,-6.148996567,K3NaP4(H2O7)2
mp-606102,0,-0.464042298,8.15654695,0,-48.30292132,-6.037865165,Ce3In3Ru2
mp-9270,1.0356,-0.691545692,10.09023892,0.004463343,-74.12091489,-6.176742907,SbIrS
mp-2628,0,-0.198454288,10.12022859,0,-38.84159089,-6.473598482,DyCo2
mp-12097,0,-1.069375867,11.51737064,0,-38.64151655,-7.72830331,Sm(SiIr)2
mp-754698,0,-2.818152136,4.812196688,0.09920488,-108.0817038,-9.006808653,NbO2
mp-4453,1.6265,-0.876639962,5.846630384,0.057820529,-66.83643477,-5.569702898,TlNO2
mp-559927,0.8679,-2.962758899,4.382107232,0.017399892,-428.7991355,-7.940724731,Tb2Cu(BO2)8
mp-30726,0,-0.357528998,11.82074417,0,-17.61714298,-2.202142873,YHg3
mp-682284,0.6833,-1.863397072,6.026290269,0.03585011,-220.7122243,-5.016186917,Zn3In2O6
mp-555369,0.6365,-1.614209305,3.012687317,0.01741647,-134.677125,-5.179889425,SrCuH6O5
mp-3889,4.1074,-2.62474481,2.400802738,0,-161.8124264,-6.742184435,NaBO2
mp-1018121,0,-0.627418079,9.219710863,0.004826423,-20.13566549,-6.711888497,TiPd2
mp-11814,0,-0.290876576,8.29419905,0,-13.30831271,-2.661662542,Rb2Au3
mp-29597,2.1399,-1.571124681,5.749939099,0,-202.7673673,-8.448640306,LaBN2
mp-3896,0,-1.057489559,10.41006444,0.023611195,-80.66624011,-8.066624011,Y(SiIr)2
mp-17441,2.311,-1.364443566,2.811901065,0,-124.9607809,-4.462885033,Mg2GeS4
mp-556094,1.0821,-0.972232412,5.553840234,0,-35.12040212,-3.512040212,AgBiSCl2
mp-975564,0,-2.349505672,11.1171213,0.786534299,-45.43707168,-9.087414336,PuBO3
mp-867348,0,-0.567666678,6.582844591,0,-23.84435268,-3.97405878,DyMgSn
mp-510453,0,-0.730232988,7.231418836,0.065520316,-161.998258,-5.062445563,Ag3RuO4
mp-30375,0,-0.728365183,11.56969598,0,-38.33396013,-4.259328903,ErInAu
mp-758201,0.2148,-2.821802387,2.623422241,0.116237453,-324.9976852,-7.386311027,LiTiP2O7
mp-768137,0,-2.232473711,3.157452837,0.05562465,-155.3921186,-6.474671608,Na2SnPCO7
mp-530984,3.595,-3.368881153,3.52713798,0.011947076,-843.7681682,-7.40147516,Al22PbO34
mp-758020,0,-1.451379598,3.579595489,0.110804458,-206.284161,-6.446380031,LiCu3(CO3)3
mp-560189,3.9495,-2.481908478,2.246795961,0,-335.0838267,-5.983639763,NaLi2BO3
mp-9610,3.7195,-0.834007463,1.479103249,0,-33.11640057,-6.623280114,Li2CN2
mp-769532,0.0707,-2.122802042,2.551464107,0.016553523,-370.9052557,-6.868615846,Na4V2C4SO16
mp-22367,0,-1.166911716,9.052020636,0,-44.00018225,-5.500022781,PdPbO2
mp-585266,0.368,-2.333992513,2.809825769,0.067576906,-284.8912771,-7.122281927,MnP2O7
mp-680502,0,-0.945960033,6.227150629,0,-177.8171167,-4.679397807,La10Ga5Br4
mp-583266,0,-0.069368015,4.070435147,0.043113651,-144.7630951,-1.507948908,MgZn
mp-23550,3.1322,-1.992279144,2.889506817,0,-40.750449,-3.39587075,KBrF4
mp-561886,5.4927,-2.938745427,3.713328827,0.010645705,-523.656252,-7.273003499,CsNd(PO3)4
mp-20685,0,-0.120952075,7.84932961,0,-68.03333217,-8.504166521,Cr3Ge
mp-13463,0,-0.213386573,15.17114901,0,-27.20529144,-6.80132286,FeNiPt2
mp-675436,2.5237,-3.688431203,6.530608711,0.215664662,-193.3707834,-8.789581065,Sm2Zr2O7
mp-555159,3.5619,-3.728211569,6.655486593,0.026370709,-122.662999,-8.177533266,Pr2O3
mp-8800,0.1395,-0.190393321,7.656334064,0.016959402,-45.57236946,-3.797697455,TlCu3Se2
mp-762248,2.8456,-2.378669376,3.038899762,0.096656556,-405.274325,-6.754572083,LiSb3(P3O10)2
mp-776502,2.671,-3.028520394,2.785828457,0.012181433,-278.3239196,-7.731219989,LiTi2(PO4)3
mp-767279,4.7848,-2.801759161,3.622841052,0.094099965,-172.5253468,-7.188556117,Li2DyPCO7
mp-16495,0,-0.162825985,6.949494968,0.015402528,-30.95577272,-7.73894318,AlCrFe2
mp-15939,4.6512,-3.28319805,2.657865552,0.000964463,-91.52059584,-7.62671632,SrAl2B2O7
mp-974108,0,-0.737005831,9.420293858,0.443910774,-23.68000314,-4.736000628,NiPbO3
mp-570278,0,-0.425336959,7.552646811,0,-92.49437954,-4.204289979,Yb3Ge8
mp-1018097,2.1413,-2.881827801,4.632471801,0.199649538,-23.90703004,-5.97675751,BaCaO2
mp-27898,0,-1.048077773,5.905262944,0,-85.16706023,-8.516706023,Zr3AlN
mp-1001788,0,-0.017526544,3.876496892,0.407548176,-48.74136733,-6.963052476,ZrB6
mp-23980,3.7332,-1.69114208,3.912758853,0.00270745,-70.3922163,-5.02801545,Cs3H(SeO4)2
mp-530429,5.5173,-4.133962908,4.094563805,0,-527.8539891,-6.945447225,YZr3F15
mp-559484,0,-2.554828406,6.733775167,0,-534.2191328,-6.848963241,Ba11(OsO6)4
mp-631361,0,0.728693552,6.09067608,0.728693552,-25.97746224,-6.49436556,SrZr2Nb
mp-554371,5.3874,-2.968210411,2.895813247,0.00142462,-260.7673795,-7.243538319,CaSiBHO5
mp-770891,0.7115,-2.543533043,4.603021896,0.096795836,-183.4846222,-7.64519259,Ti3Cr3(SbO8)2
mp-744081,2.0548,-0.943024242,3.606425335,0.264838565,-165.0275122,-5.500917075,K6W2N4O3
mp-753794,4.8841,-3.414077214,5.409031276,0.007611233,-226.2975697,-8.703752679,Hf2P2O9
mp-567777,0.2275,-1.071676635,6.560278141,0,-290.5417069,-5.188244765,La9Sb16Br3
mp-4856,0,-0.462733544,7.817097757,0,-30.08053418,-4.297219169,HoGa5Co
mp-669357,2.3545,-0.590421946,5.059254187,0.001715053,-62.9653054,-1.908039558,CdI2
mp-7592,0,-1.195905161,6.62422278,0,-6.64103403,-3.320517015,AgF
mp-1009504,0,-0.538448787,6.752476501,0.024612405,-17.80155065,-5.933850217,EuZnGe
mp-21560,0.4526,-1.572273118,5.516117613,0.041634985,-255.9054333,-5.816032575,CuAs2PbO7
mp-764735,0,-1.572589781,4.925207284,0.083525255,-133.4522599,-5.560510828,Li5Mn2Cu5O12
mp-780274,1.9786,-2.547485905,10.37788171,0.003891494,-422.2179577,-10.55544894,Hf2N2O
mp-1008653,0,2.236128572,7.818099429,2.236128572,-7.58189001,-3.790945005,AgC
mp-865568,0,-0.198236356,10.14504643,0,-35.25234007,-8.813085018,ThScTc2
mp-626721,3.3443,-1.560448598,3.29020668,0.001630945,-26.32806023,-4.388010038,RbHO
mp-18838,1.5128,-2.594591218,2.70615569,0,-251.4852034,-5.715572805,K2MnSO4F3
mp-12262,6.645,-3.426780678,3.397006894,0,-104.0817774,-5.204088872,CsBeF3
mp-16934,4.4332,-3.536728198,5.689958231,0.010182256,-209.0481861,-7.466006646,BaLaAlO4
mp-684816,2.3831,-2.996263046,3.140555045,0.089033922,-115.5397414,-5.776987072,K2NaNb(OF2)2
mp-18846,0,-1.381909073,4.134783921,0.105727912,-271.446212,-5.42892424,Na4(CoO2)7
mp-978973,0,-0.37768278,9.02826175,0,-12.51994661,-3.129986653,Sm2ZnHg
mp-559931,1.5498,-3.227775362,3.249321161,0,-49.13991438,-6.142489298,VF3
mp-567702,1.1342,-1.526524855,4.029921792,0.019576845,-165.0828018,-4.585633382,CsReCl4
mp-554280,4.5637,-3.37963913,5.509575408,0,-287.2324198,-7.978678327,RbTh2(PO4)3
mp-23008,2.617,-1.830670599,7.347367355,0,-24.48609728,-4.081016213,PbBrF
mp-32727,0,-1.850844233,5.078439225,0.008728133,-185.2642389,-6.616579961,Y3Se4
mp-21297,0,-0.256434593,7.586188907,0,-57.50037822,-4.791698185,LiSn4Ru
mp-977574,0,-0.869482334,10.53509062,0.014977509,-22.53962124,-5.63490531,HoSbPd2
mp-3093,0,-0.486705025,10.30379572,0,-48.64275189,-8.107125315,ErB2Ru3
mp-30979,2.3218,-0.859059575,2.343968462,0,-109.8099784,-4.575415765,GaPS4
mp-978093,2.4862,-2.461194769,5.629666949,0.012199049,-63.71070605,-6.371070605,Ho2S3
mp-557498,0.8754,-1.426095191,8.34061149,0,-185.5017828,-5.152827301,NaBi2AuO5
mp-21491,0,-0.34000263,6.425401923,0,-92.28564506,-6.59183179,Y3GaCo3
mp-33432,1.5363,-2.014904333,4.360268763,0.229138764,-88.13597559,-6.295426828,Mg(FeO2)2
mp-4971,1.4545,-0.793991293,3.777948213,0,-112.5907886,-3.753026288,K4Sn3Se8
mp-768961,5.2604,-3.061468829,3.313344008,0,-495.2791451,-8.254652418,YB5O9
mp-14871,3.4034,-1.066749619,3.756291504,0,-150.8869091,-5.58840404,Li16Ta2N8O
mp-780157,2.3469,-1.659238084,1.943330199,0.03422504,-324.7748715,-5.412914524,LiFeH12(SO7)2
mp-999133,0,-0.365140333,14.24104625,0,-35.52775951,-8.881939878,TaPd
mp-559159,0,-1.25510271,4.803303565,0.014308859,-165.1142599,-5.503808663,Cu4As2O9
mp-780314,0.9942,-2.561817272,2.911889672,0.020208459,-370.8573775,-6.867729213,Li3V2P4(HO8)2
mp-8761,0,-0.266116885,7.224186406,0,-62.78100923,-7.847626154,NdCoC2
mp-600051,5.5708,-3.274683568,1.77312834,0.014467448,-1137.705516,-7.90073275,SiO2
mp-18101,1.7876,-1.138339975,3.646725626,0,-116.2704225,-3.229733959,K2Cd3S4
mp-696949,3.6018,-1.972588292,3.168224017,0,-93.53005027,-5.196113904,Li3TeHO4
mp-541495,5.3528,-2.934754,3.00696563,0.012112791,-265.5189003,-7.375525008,KY(PO3)4
mp-567076,0,-0.436978566,8.81781355,0.021663913,-12.73572613,-3.183931533,Li2BiAu
mp-555482,5.8343,-3.096433272,3.04791985,0.000718775,-467.4466255,-5.843082819,KZrH2OF5
mp-771074,0.8715,-2.085481407,2.234898726,0.05730488,-151.0694865,-5.395338804,Li7CrO6
mp-8881,1.687,-0.482778385,3.590981525,0.006272763,-18.72300339,-4.680750848,AlAs
mp-19900,0,-0.691090886,8.453041568,0,-36.15957661,-7.231915322,La(GeRu)2
mp-3286,0,-0.371688098,5.588146379,0,-17.83462373,-3.566924746,Ce(AlZn)2
mp-10477,0.0556,-0.422071482,6.020933527,0,-38.02796181,-3.168996818,RbAg3Se2
mp-971701,0,0.35908984,6.438214728,0.480327322,-13.7799927,-3.444998175,ZnAs3
mp-999446,0,0.40008595,7.758968231,0.412667729,-38.37577757,-9.593944393,Nb3Cr
mp-19502,0,-3.354257446,4.363191161,0.010848991,-528.3673074,-8.80612179,BaTi18Mn3O38
mp-775216,2.5268,-2.003826603,4.004712906,0.091574275,-198.4411276,-6.201285238,LiVTeO5
mp-20971,0,-0.385301009,17.39227877,0,-23.72108818,-5.930272045,SnPt3
mp-7249,2.8727,-3.084118658,6.191628308,,-107.8796369,-7.191975791,Ba3Nb2ZnO9
mp-12287,2.9499,-3.734406234,6.11761623,,-187.5979736,-8.52718062,La3NbO7
mp-989497,0,-1.219320483,8.704836255,0.018326418,-47.84023663,-9.568047326,LaWN3
mp-974066,0,0.007245721,6.922831024,0.007245721,-18.98265294,-4.745663235,Nd3Sm
mp-559067,2.0441,-1.326980497,4.625841701,0,-46.95094474,-3.912578728,KNa2AuO2
mp-866019,0,-0.338507474,8.836155537,0,-12.76099646,-3.190249115,LiNdTl2
mp-31256,1.2808,-2.594687771,6.703624556,0.004866429,-68.25876975,-7.58430775,U(SbO3)2
mp-571471,0,-0.37367185,7.182074659,0,-100.0106047,-6.250662793,NbCoTe2
mp-510654,0,-1.690973358,3.83833221,0.013507273,-212.7958069,-5.910994637,Cu2PHO5
mp-556195,2.7458,-2.130490104,3.6648116,0.004648909,-550.9415791,-6.260699762,Na2AlB(As2O7)2
mp-30434,0,-0.385247328,8.346845306,0,-15.62846797,-2.604744662,BaTl2
mp-865122,0,-0.263285731,8.365162104,0,-11.89053836,-2.97263459,NaNdTl2
mp-861510,0,-0.603565086,8.517819089,0,-16.29471115,-4.073677788,Pr2SnHg
mp-757375,1.7266,-2.646048765,5.703194553,0.040944998,-219.5546609,-7.318488695,Ti2Sn3O10
mp-37695,0,-0.554305787,6.156879081,0,-84.77556425,-4.461871803,Ag7NO11
mp-29934,2.8062,-3.153184553,5.397810334,0,-253.8630213,-5.76961412,Zr6Ag7F31
mp-770676,2.8598,-1.535541689,1.673594238,0.04267321,-182.4865838,-4.562164594,Li2CrH8Cl5O4
mp-504935,1.2287,-1.60907577,4.74877565,0.004445275,-113.0233631,-4.709306794,K2PbO3
mp-7499,1.4064,-0.761783496,5.360970554,0.000834658,-73.86167474,-4.103426374,Tl2Sn2S5
mp-23930,3.6208,-0.487708204,1.281348758,0,-181.8217951,-5.681931097,H4CSN2
mp-772633,4.038,-3.745076306,4.158496924,0.01346411,-344.8219343,-8.210046054,SrSc2O4
mp-772659,0.8276,-2.120060018,3.285154943,0.07452551,-188.8550509,-5.90172034,Li3CrO4
mp-769495,0,-2.125367553,2.959869557,0.006848999,-310.9901159,-6.219802318,Na5Ni2P2(CO7)2
mp-570755,2.6564,-1.116676105,5.502160021,0,-533.3990441,-8.334360064,KTaN2
mp-19479,4.0741,-2.406305528,3.658943756,0,-342.2611164,-6.581944546,Na5La(MoO4)4
mp-765504,0,-1.887894651,4.616835517,0.008218368,-186.6595174,-5.833109919,Li8Fe3Co5O16
mp-3884,2.698,-3.052614667,7.857516456,0,-160.6771723,-7.30350783,Ho2Sn2O7
mp-766303,3.3846,-1.607722868,3.985123399,0.072146204,-88.61683464,-3.282104987,Ba2Ca7I18
mp-974617,0,0.065049247,14.14037712,0.150428855,-5.82901631,-1.457254078,Hg3Pd
mp-558269,0,-1.918855619,4.295517478,0.013550348,-199.867605,-6.245862657,Ce2SiS5
mp-12265,0.6707,-3.060860897,4.256644755,0,-59.66142309,-4.971785258,SrCuF4
mp-560121,5.1511,-1.245324066,1.513525479,0,-468.0729225,-5.850911531,H5CNO3
mp-560515,0.5957,-1.689756005,2.612543871,0,-68.46415258,-4.027303093,K4Ru2Cl10O
mp-8347,0.4421,-1.669037448,4.057062675,0.02789279,-98.75531914,-6.172207446,BaMnS2
mp-867873,0,-0.202506362,6.654915245,0.000447539,-15.42245782,-3.855614455,LiTm2Al
mp-1019714,5.2036,-3.305194119,3.221396376,0,-658.3309065,-7.155770723,CsCa10(PO4)7
mp-20030,0,-0.114408917,12.95974212,0.096099962,-80.2613681,-8.02613681,U2InCo2
mp-985471,0,-0.206992844,8.543441674,0.042396477,-14.27313511,-3.568283778,Ce2ZnHg
mp-10784,1.9936,-1.715653491,5.551988756,0,-19.42555645,-4.856389113,RbErSe2
mp-4973,0,-3.291428323,5.808083583,0,-41.38715374,-6.897858957,CeSF
mp-849671,0.2365,-2.30523309,2.837994487,0.102703547,-233.8521338,-6.15400352,Li5Co2(SiO5)2
mp-11228,0,-0.417594527,3.890280763,0.004638289,-22.10135277,-5.525338193,YAl
mp-626864,1.6724,-2.59608065,6.556193376,0.07837361,-105.7021897,-7.550156409,U(HO2)2
mp-505622,0,-0.24619143,7.329288564,0,-45.82042638,-9.164085276,Mn4N
mp-998429,1.8303,-1.754070673,5.837584275,0.002325603,-38.94986764,-3.894986764,NiAgF3
mp-632759,0.2555,-1.538354496,2.894304856,0.022087716,-42.19736003,-4.688595559,CuH4(OF)2
mp-755783,2.9034,-2.900387869,2.292483075,0.066180412,-164.6657671,-7.484807595,Li2Ti(BO3)2
mp-770871,1.521,-2.163584447,2.623359467,0.062453586,-177.4678333,-5.915594445,Li6Cr2O7
mp-769868,4.0167,-1.599397443,3.51243408,0.044825983,-191.0270279,-5.027027049,Li3BiH8O7
mp-15650,0,-0.272853561,9.409154412,0.030552066,-57.83827195,-7.229783994,AsRu
mp-778111,0.5352,-2.305596194,3.551492113,0.089252917,-564.8073689,-6.567527545,Li3Bi3P8O29
mp-916,0,-1.108238065,16.11523181,0.014555731,-40.08763179,-6.681271965,DyPt2
mp-558628,3.9994,-2.475622476,2.163280514,0,-166.4536365,-5.944772732,KLi2BO3
mp-764460,0.8642,-1.823060063,4.756684597,0.01632386,-195.6477123,-6.113991009,Na5Fe11O16
mp-35005,0,-2.149001625,6.760963683,0.037095986,-129.9977222,-6.84198538,Na3(WO3)4
mp-559092,6.0487,-4.317586783,2.497921216,0.00159766,-27.86453459,-6.966133648,ScF3
mp-26224,0,-2.360331142,2.695855937,0.054377308,-349.9950258,-6.249911174,Li3Cu(PO4)2
mp-771165,3.1473,-3.861828116,7.126936031,0.046713538,-276.5388642,-8.641839505,Dy2TiO5
mp-17965,1.2481,-0.69895116,4.045834776,0,-105.773103,-3.305409468,KGaTe2
mp-19820,0,-0.213064268,11.30190335,0,-16.43485113,-4.108712783,TmPb3
mp-567172,0,-2.192765792,3.423685684,0.069916771,-34.10878327,-3.410878327,Cs2NaYbCl6
mp-17812,1.7848,-3.234889894,6.305901272,0.007394765,-243.1408417,-7.598151303,Sm2SiTeO4
mp-626308,3.3662,-1.445835465,1.560426896,0.05234171,-270.2795817,-5.005177438,Ca(H8O5)2
mp-971724,0,-2.148248867,4.623131521,0.834238667,-67.1112048,-7.456800533,Ti2Si2O5
mp-30696,0,0.022956383,8.600398759,0.022956383,-50.44624653,-1.801651662,Cd5Cu2
mp-23356,2.8354,-2.103955104,7.901067721,0,-394.1883849,-6.569806414,Bi4B2O9
mp-558073,1.4004,-2.186062564,3.695145025,0.000308916,-261.5414513,-4.086585177,Sb2SeI2F11
mp-36465,2.3609,-2.910136455,4.138842376,0.059686581,-100.9993064,-7.214236169,Al2FeO4
mp-540839,2.5203,-1.04306493,4.983585047,0,-57.47745741,-2.873872871,CsPbI3
mp-9244,0.8988,-0.376302895,2.138494866,0,-37.88176302,-6.31362717,LiBC
mp-10454,0,-0.641763238,6.751094885,0.01171525,-38.32302476,-6.387170793,SmTiGe
mp-764245,1.3822,-2.597041695,4.216140137,0.027943849,-161.6683232,-6.736180135,Mg7Mn5O12
mp-1014296,0,0.356809642,2.698187199,0.356809642,-68.40330873,-8.550413591,C3N
mp-772568,1.5112,-1.676174771,2.924206785,0.096167199,-363.3044366,-6.373762046,Li2Cr4O13
mp-11233,0,-0.469182075,4.96162654,0.014662214,-26.46797858,-6.616994645,ZrAl
mp-220,0,-0.432984073,10.57057215,0.002675743,-20.26536905,-6.755123017,ThNi2
mp-676311,2.363,-3.632008161,6.240994778,0.232820692,-192.3244624,-8.742021016,Nd2Zr2O7
mp-686458,0.0201,-2.834788716,2.26339532,0.226802163,-573.0542528,-6.663421544,Rb11Al14Si10(AgO16)3
mp-769152,4.0634,-1.024904794,2.566538316,0,-154.419098,-4.825596812,Sc(ClO4)3
mp-2067,0,-0.63959199,9.156880087,0,-30.78003428,-5.130005713,ThGa2
mp-541629,5.7568,-3.540380837,4.821531628,0,-147.3627153,-5.262954119,BaGaF5
mp-2369,0,-0.53428665,9.34298044,0,-41.02445078,-5.128056348,SnPd
mp-2082,0,-0.395615634,15.75040303,0,-24.32429503,-8.108098343,PIr2
mp-772055,2.9558,-2.821415542,2.954391827,0.011646225,-198.2964602,-6.609882005,Li6Ti2O7
mp-28679,3.483,-1.124015996,3.274107009,0,-70.51690108,-2.938204212,NaGaBr4
mp-780860,1.1398,-2.418451442,3.157936437,0.048653549,-107.2812317,-4.876419621,Li2Co2OF6
mp-675912,0,-2.264916063,6.917452457,0.150022139,-74.97222282,-5.355158773,Yb2SmS4
mp-943466,2.8089,-2.230852689,3.123716987,0.072818419,-122.284147,-6.11420735,Li2CoPHO5
mp-571046,1.3539,-0.808099393,4.768393058,0,-151.7717689,-5.837375727,Sr5(GeN3)2
mp-686583,4.1738,-3.153673682,3.117267766,0.019871793,-297.8146682,-7.636273543,Na5Zr4Si3(PO8)3
mp-567932,0,-0.133671146,3.560640527,0.001550331,-48.73575156,-2.707541753,LaMg4Cu
mp-631560,0,1.064229321,12.757968,1.064229321,-31.47409974,-7.868524935,SrMnRe2
mp-14213,1.0529,-0.960827209,3.653047951,0,-333.1646553,-4.627286879,Sr4GeP4
mp-27830,2.7708,-1.551490836,3.046398707,0,-26.7668029,-2.974089211,Cs2SeCl6
mp-559446,1.2341,-0.945452173,2.770976702,0,-64.80435435,-4.628882454,NaPPdS4
mp-977062,0,0.10148397,1.191892039,0.10148397,-5.61156349,-1.402890873,Na3Ca
mp-30151,0,-0.079854729,6.955173299,0,-43.62007984,-3.635006653,CuAuSe4
mp-767039,1.7769,-2.005708612,5.327961659,0.024452785,-287.9389276,-6.259541905,Sn8P2O13
mp-974627,0,0.023231381,2.592374615,0.08465318,-5.60502661,-1.401256653,K3Tl
mp-9027,0,-1.696696303,3.151610241,0.021062008,-79.66421334,-6.638684445,TiS2
mp-931,0,-1.556166081,8.693864596,0,-15.93203038,-7.96601519,ThP
mp-985562,0,-0.48076736,7.764749305,0,-111.8342189,-4.65975912,Nd11In9Ni4
mp-722271,2.4352,-1.042641687,2.293039754,0.059029607,-293.7417498,-5.439662033,H14RuS2(N2O3)2
mp-20533,0,-0.666246082,8.456746801,0,-31.81916652,-3.977395815,SrIn2Pt
mp-11445,0,-0.540169912,6.131493279,0.010893567,-38.16550284,-5.452214691,Y(TiGa2)2
mp-759450,2.6931,-1.796571599,5.011735289,0.078112021,-299.9904735,-5.769047566,Sb5O7F
mp-569689,0,-1.422587168,5.953716714,0,-33.20046478,-8.300116195,Eu2PI
mp-757280,3.1663,-2.085532407,4.310670345,0,-235.7038413,-6.202732665,Ba2As6O11
mp-973875,0,0.089276146,6.171658591,0.089276146,-13.35764757,-3.339411893,Ga3Ge
mp-767240,4.5992,-1.338529186,3.009712133,0,-228.0287907,-5.700719766,CsPH4(NO)2
mp-16183,1.2819,-0.230871613,5.284263909,0,-90.11407029,-4.096094104,Tl2B2Se7
mp-767605,2.488,-3.184567311,2.621204897,0.035368147,-175.1697592,-5.474054974,Li2VF5
mp-680443,0.2811,-0.164169742,6.431704311,0.013248698,-159.5551652,-3.068368562,K4Pb9
mp-22909,4.0499,-1.538337414,2.755304184,0,-16.79108204,-2.798513673,ZnCl2
mp-654199,0,-0.650591729,10.52401798,0,-558.3918732,-8.211645193,Ta8NiSe8
mp-510452,0.0084,-2.594298786,4.354601568,0.017107669,-218.0997787,-6.815618084,CeHSO5
mp-722979,1.98,-0.530479605,1.907954285,0,-138.3569432,-4.611898106,K2Zn(H2N)4
mp-11322,0,-0.934096943,5.566569218,2.03E-05,-31.68206602,-7.920516505,ZrSi
mp-779316,0.8821,-2.806719903,4.096333453,0.044036642,-171.714643,-7.154776791,VOF
mp-771123,0.909,-2.895912295,4.323142422,0.043828066,-235.3090498,-7.843634994,ScFeO3
mp-762852,5.3551,-1.909976805,1.77559177,0.02355807,-314.1884528,-5.41704229,Na2P2H12O11F2
mp-631522,0,0.748390598,14.35918819,1.124696753,-31.71334891,-7.928337228,LaOs2Rh
mp-30457,0.0134,-0.633776532,11.20576463,0,-16.10369983,-5.367899943,LuNiBi
mp-4051,5.475,-3.140126661,2.151344092,0.002118155,-89.80863652,-7.484053043,AlPO4
mp-1008600,0,-0.129296202,4.528568381,1.187751653,-24.84035494,-8.280118313,ZrN2
mp-705312,3.5518,-2.539429851,3.563942107,0.015386813,-572.715211,-6.818038227,LiFePO4
mp-549970,0,-2.552271154,7.462941695,0.017127627,-68.44707403,-6.844707403,Ba2ZnReO6