id,band_gap,formation_energy_per_atom,density,e_above_hull,energy,energy_per_atom,pretty_formula
mp-39681,2.7328999999999994,-2.8435104762499988,5.792352980118892,0.013831523750010177,-74.89784264,-7.489784263999999,NaTi2BiO6
mp-17714,5.5334,-3.3864145007499995,6.6256454549033705,0.03847999775000055,-413.50264776,-8.2700529552,Ho4(B2O5)3
mp-619928,1.3186,-1.2317025162668185,3.016630656217277,0.001631956136363577,-174.41272032,-3.963925461818182,Zr(Se2Cl3)2
mp-978847,0.4257999999999997,-0.4896342938216662,4.9054402147729705,0.0,-14.53335664,-3.63333916,SrGaGeH
mp-15514,1.1893000000000002,-0.5718088490624998,3.653631037194186,0.0,-80.15578006,-3.3398241691666666,NaSe2
mp-558984,3.6787,-2.07583770499,5.440284027626428,0.0,-131.13585448,-5.463993936666667,GaTeO3F
mp-627414,,,,,,,
mp-757301,3.9269,-2.4624307927593527,2.501419045150818,0.08850374762500479,-379.30438294,-6.7732925525,LiSn(PO3)3
mp-18332,2.3854999999999995,-2.0722553842857145,5.605552731500184,0.0009616161734697926,-154.79643521,-5.5284441146428565,Lu2ZnS4
mp-16600,5.6112,-3.2987951636388875,6.019741211591168,0.018484831166665217,-247.24810584,-8.241603527999999,Dy2B4O9
mp-22538,2.3394000000000004,-1.9811780653888889,4.1364987482657165,0.0010667486666662283,-74.17563617,-4.9450424113333336,Li8PbO6
mp-581967,1.6747,-3.0451306577295933,4.300420593324272,0.0,-878.45592839,-8.963836003979592,Nb2O5
mp-638261,4.0154999999999985,-3.3403796282812506,5.7581623022819,0.0,-249.76356084,-7.80511127625,La2GeO5
mp-567178,2.3974,-0.6664671622222222,5.471911708464751,0.0019678869444441642,-26.280027500000003,-2.920003055555556,PbI2
mp-776500,1.2945,-2.7485001969046152,3.135128829795462,0.07247534403846334,-157.84569174,-6.070988143846153,Li3V2(OF)4
mp-905,6.0429,-4.513887791725833,5.80702789549209,0.0,-163.51925204,-6.813302168333332,LaF3
mp-21858,1.9105,-3.5406730465625,8.629546154320867,0.08297625687498034,-152.76439441,-9.547774650625,UO3
mp-773206,1.0325,-2.589114662852564,2.7868997611775344,0.6092099909294841,-177.69549245,-6.834442017307693,Li3CrSiBO7
mp-27202,4.1569,-0.1987405252547221,1.0847410614388906,0.01943554287311944,-372.33091355,-5.171262688194443,B9H8S
mp-707151,5.097099999999998,-1.7855136631856587,1.6916114794083037,0.018285603488371827,-486.18028458,-5.653259123023256,Na2B4H20O17
mp-762477,,,,,,,
mp-570053,1.3163,-0.8992909832547372,6.523073043300165,0.0,-269.57963245,-3.5471004269736843,Bi8AsAuCl9
mp-686183,1.9832,-1.6157693636220476,8.634133195439754,0.03888640393701337,-723.45356441,-5.696484759133859,Zn(Bi25O38)2
mp-13568,0.3370999999999995,-2.1808174979166672,5.2019263425643345,0.0,-73.02630175,-6.0855251458333335,NdS2
mp-696944,3.6021,-1.6583840546549995,4.523696208919207,0.0,-36.16626613,-4.52078326625,LaHBr2
mp-780138,,,,,,,
mp-763003,3.1237,-2.4379997911703684,2.4083080620753106,0.6293619120000011,-155.04857118,-5.168285706000001,LiMnF3
mp-23719,3.204,-0.11791429401428592,1.0608739529441629,0.015405238333333847,-49.01814412,-3.501296008571429,BeAlH5
mp-776661,1.5159,-2.4276349358928573,3.3104701387786437,0.08201171857142242,-108.74591734,-7.767565524285715,NbV3O10
mp-566310,,,,,,,
mp-16281,0.5499999999999998,-1.794751209886364,6.750644874883856,0.009220504090909465,-119.06465264,-5.412029665454546,Cd2Sb2O7
mp-31618,,,,,,,
mp-782700,,,,,,,
mp-772105,3.8855999999999993,-3.2395093466203693,4.110028689391866,0.06699534638888949,-285.18863372,-7.921906492222222,Li2Zr2O5
mp-554688,0.5949,-2.2241747707407407,5.2995663693435,0.026824366296295917,-176.92030551,-6.552603907777778,Ba6Hf5S16
mp-556578,3.2428000000000003,-1.0283303433333326,5.4063719750470565,0.01088668611111121,-309.4654945,-4.298131868055555,Cd(IO3)2
mp-541168,5.4715,-2.932539673339948,3.877768471402616,0.008013459861104799,-523.36974264,-7.269024203333334,RbTm(PO3)4
mp-567913,1.0689000000000002,-0.4920652979924569,5.5093445433514505,0.0,-34.23468967,-3.4234689670000003,CsAuSe3
mp-34932,2.1864000000000003,-0.9165330853333328,2.5551746917728693,0.0,-15.94127084,-5.3137569466666665,CaHN
mp-8683,0.3468,-0.4405612131250001,3.163658656599419,0.0,-43.3347642,-2.7084227625,K5As2Au
mp-566061,,,,,,,
mp-756439,2.7355,-2.0235496623809524,4.2440232302616385,0.053253383214284966,-57.94993739,-4.139281242142856,SrLaBr5
mp-763344,1.1398,-2.2796954322222227,3.2226891966701507,0.07298085729166104,-85.4316603,-7.119305025,LiV3O8
mp-540274,,,,,,,
mp-555132,1.9323,-1.5756824773372728,4.2664690079450445,0.0004640740909067631,-68.08009801,-3.0945499095454547,BiXeF9
mp-773498,1.9929,-1.8916764005833344,3.347256535004038,0.07155186333333585,-295.81092912,-4.9301821519999995,Na6Sn2O7
mp-778754,3.1726,-2.4384165002211478,3.2805467238927566,0.016521256041667876,-335.28140682,-6.98502930875,Li8MnFe7(BO3)8
mp-7651,4.655899999999999,-3.801172905,7.070093456784662,0.03567697249999568,-210.50779284,-8.771158035000001,ThSiO4
mp-557407,2.1426,-2.4679646409342118,3.060426204380447,0.0,-274.4175753,-7.221515139473683,K3NaUC3O11
mp-31075,1.3168,-0.3605327278125,6.83171084981493,0.0,-54.80116876,-1.957184598571429,Hg3(SeBr)2
mp-697981,2.763,-1.5301672558055837,4.921329819117074,0.00192847591666645,-315.35438219,-5.255906369833334,Cd3H2CSeO8
mp-763357,,,,,,,
mp-5859,5.507999999999999,-3.12004737545635,1.6199779611233749,0.01094037013888727,-538.34169383,-7.4769679698611125,AlPO4
mp-767751,,,,,,,
mp-541819,1.8304,-0.4331697867187501,3.675529327434044,0.0,-205.87796352,-4.901856274285715,Rb2Hg(BSe)9
mp-562338,2.0194,-2.3404133852929694,5.235687167196452,0.0,-235.93848553,-7.3730776728125,USeO6
mp-20329,0.2441,-1.4042197952083333,6.843860720761562,6.907624999996642e-05,-39.38484581,-4.92310572625,InAgO2
mp-21563,4.2985000000000015,-3.237073825,3.3136706539365917,0.06923261559523741,-414.05301099999997,-7.393803767857142,SrAlBO4
mp-773996,,,,,,,
mp-771699,0.9844,-1.6798979812499997,5.297727845702556,0.07902126535714071,-164.98244953,-5.892230340357143,Sb2O5
mp-1019378,3.3491,-1.345227476189999,3.943707523698624,0.01878116437500044,-56.83652597,-7.10456574625,Al3GaN4
mp-761677,,,,,,,
mp-758038,1.9869999999999999,-3.6958943436607137,5.245921788526059,0.03749743866071675,-247.02136552,-8.822191625714286,La2Ti3O9
mp-562025,,,,,,,
mp-774236,3.1149,-2.5088173875961535,2.764396767365954,0.5568686030929477,-180.70252165,-6.950096986538462,Li3CrSiCO7
mp-766267,4.0624,-3.993526331583333,5.376130768377414,0.0019751501875013844,-361.1121865,-9.0278046625,Y7TmO12
mp-32586,1.7867999999999995,-2.4409730876249998,5.373485557051321,0.01640561374999283,-257.28097167,-6.43202429175,Nd2S3
mp-558126,4.4533,-2.060773358944374,3.1491212002129196,0.0,-199.46220633,-6.2331939478125,LaH4S2NO8
mp-762706,,,,,,,
mp-31727,,,,,,,
mp-30091,1.7359999999999998,-0.4253379864284842,2.5774709548371453,0.0,-148.68520346,-6.758418339090909,MgB9N
mp-566886,,,,,,,
mp-27563,1.4512999999999994,-1.904869004134616,5.793238014170112,0.0,-67.4507584,-5.188519876923077,Rb2In4O7
mp-765416,3.0311,-2.84170139829301,2.7134301550634885,0.17545825290322625,-227.43795228,-7.336708138064517,Li2Fe2Si8O19
mp-17250,3.2396,-1.8311616778928577,3.0719478822527244,0.0,-132.06129831,-4.7164749396428585,K3SbO3
mp-558713,4.6936,-3.1999892738095235,2.2818816403888564,0.019499841904761617,-151.38142839,-7.208639447142858,LiAlSiO4
mp-973441,1.0587,-2.517891036375,5.827341986561973,0.0,-129.31026214,-6.4655131070000005,La(ErS2)3
mp-10510,6.0443,-3.555886648682917,4.265668968598057,0.00014935249995673416,-112.73825433,-7.046140895625,BaAlBO3F2
mp-9361,2.7025,-2.2213542671875004,3.8477250161266014,0.0,-21.74793798,-5.436984495,RbLaS2
mp-7914,3.99,-3.205781205625,3.4484801212183416,0.0,-28.95914787,-7.2397869675,NaScO2
mp-771856,,,,,,,
mp-754668,3.2482,-3.0856481685637505,8.980418579768953,0.03760960999999874,-166.39736088,-10.399835055,Hf3N2O3
mp-34139,0.5625999999999998,-2.203980866604336,4.658658894688135,0.004249252142860982,-110.02457609999999,-7.858898292857143,Mn2CrO4
mp-31584,,,,,,,
mp-626093,3.4939,-1.2207403843014288,1.5413159419557705,0.04193567357142847,-292.77994804,-5.228213357857143,H7NO6
mp-669496,0.6923999999999997,-0.12984802874999984,6.212422516163013,0.0,-102.52947291,-2.56323682275,PtI4
mp-640553,1.7859,-3.1889934202777783,5.229901541046563,0.03730302555556442,-152.59302901,-8.477390500555558,BaNb2O6
mp-765481,0.4536,-2.261996085014584,3.539761600058174,0.0383246509375037,-127.39637645,-3.9811367640625,Li2AgF5
mp-540227,,,,,,,
mp-7614,0.7551000000000001,-0.4616760096944447,5.82980376350134,0.0,-223.38680982,-3.723113497,Si(Ag4S3)2
mp-769706,,,,,,,
mp-776332,4.7322,-0.3158361265696964,1.1364975749387507,0.07630719496212103,-435.05645530000004,-4.943823355681818,Na(BH)5
mp-505148,2.4192,-0.99036006375,5.169045412909715,0.033065300000002296,-56.3867654,-3.5241728375,ThPbI6
mp-707014,2.5304,-0.7408701739133079,1.5604924529660906,0.0,-365.37216381,-4.80752847118421,P2H10S4N2O
mp-978840,3.4360000000000004,-1.2421435409651842,3.403347688560624,0.0,-712.11946667,-6.593698765462962,SrLi2(SiN2)2
mp-28688,2.1654,-2.0464192947916664,6.293362171306588,0.0035499249999970672,-56.01035517,-4.6675295975,SrHgO2
mp-644923,5.6934,-3.266821723958333,1.6992833533499403,0.01117594520833265,-1138.32896469,-7.905062254791668,SiO2
mp-850366,,,,,,,
mp-868364,,,,,,,
mp-22862,5.0032999999999985,-2.1050868141300003,2.1053060506329344,0.0,-6.77624761,-3.388123805,NaCl
mp-21043,3.1584000000000003,-2.763687719214,5.052775758670199,0.03587118100000008,-22.77321262,-4.554642524,RbPbF3
mp-17240,4.5969,-2.6331102642361106,2.624180005339566,0.00832191500000068,-212.24045696,-5.895568248888888,RbNa3Li12(SiO4)4
mp-555253,1.5128000000000004,-3.1077781553854167,5.369263340731335,0.0,-610.17136394,-7.62714204925,La5Ti2AgS5O7
mp-5693,0.9263000000000003,-1.279680650312501,3.1842470317862364,0.0,-23.02997281,-5.7574932025,NaCrS2
mp-757878,1.4867,-1.4942551662283323,2.4785752699008987,0.0,-208.21407555,-4.337793240625,Na5Cu(HO2)2
mp-770860,2.1268,-2.38300770298314,3.5801609793790243,0.174428046957261,-278.10941618,-6.952735404499999,Li4Mn2Fe3P6WO24
mp-978278,5.6381999999999985,-0.3981762957092305,1.227698371862623,0.0,-264.01311467,-5.077175282115385,Na(BH)6
mp-35986,6.3477999999999986,-4.338665947509584,5.487103813729651,0.006346851250001785,-300.51529593,-6.260735331875,Ba4Nd3F17
mp-541682,0.4517,-0.5108683944166668,2.4959123163519683,0.0,-155.67199326,-3.24316652625,K3AlAs2
mp-569918,1.5516,-0.6529772219321954,4.263004151304161,0.005979601043365257,-571.27111055,-6.966720860365854,K13Na2W7N19
mp-542209,,,,,,,
mp-745012,3.5898,-2.1676989780357148,4.023174738685748,0.0,-286.49024945,-6.511142032954546,Ni2P2O7
mp-768061,0.966,-2.0713032643578733,2.6208620276325165,0.1228120150000036,-303.74851678,-6.903375381363636,NaMnPCO7
mp-775843,1.6504000000000003,-2.3458872057019993,5.5913598877174016,0.004830815750000994,-391.80357706,-9.7950894265,Zr2N2O
mp-24148,1.9505,-2.8990408284338094,6.300924419232332,0.012608899464283674,-48.05095593,-6.864422275714285,LiLa2HO3
mp-558310,4.3898,-2.9906854247916668,3.8830885682996215,0.002367605781249616,-312.41011479,-6.5085440581250005,BaLi2SiO4
mp-5900,5.9376,-4.183921816547273,4.9912972586047895,0.0,-279.09273337,-6.3430166675000015,Ba2ZrF8
mp-560789,1.8658,-2.0292945238660005,3.2405266833192896,0.0,-147.90782658,-3.6976956645,SbI(ClF3)2
mp-1222,0.3863000000000003,-0.3605730022222215,5.0207648212220874,0.012953194444444094,-64.74464336,-7.193849262222222,CrSi2
mp-29927,4.0573,-2.4389123049657138,7.873916229338392,0.012121860952380992,-97.52573994,-4.644082854285714,Pb7(BrF6)2
mp-626037,5.424900000000001,-2.612917237054444,1.8902650678618864,0.03531630388889173,-124.14167422,-6.8967596788888885,Si2H2O5
mp-935811,1.4237999999999995,-2.85258540535,4.474689584355856,0.012912933999992049,-38.21162742,-7.642325484,KNbO3
mp-722862,3.2464000000000004,-1.2743053221989995,3.1418442518744856,0.0,-420.39412414,-5.254926551750001,CdH3NO5
mp-626303,,,,,,,
mp-572543,5.4729,-2.9255287812342647,3.651795907742213,0.007000303611105707,-523.7477946,-7.274274925,CsPr(PO3)4
mp-690552,1.1296,-2.8647754279781843,5.79302341664068,0.05165062701666834,-151.08545382,-7.554272690999999,SrLaMnMoO6
mp-768518,4.436300000000001,-3.7312104570833338,4.697702790965778,0.00016023066666726038,-240.44778976,-8.014926325333331,LaAlO3
mp-759849,2.8232,-3.0308874877160483,4.122407563491783,0.0,-409.46230846,-7.5826353418518515,Li2Ti6Zn3O16
mp-559469,3.6961,-1.756545644091876,1.8282831047877783,0.03487731343749534,-195.43162186,-6.107238183125,CaH6C2O7
mp-704488,2.7909,-2.594270488080808,4.393978077919178,0.12446746362373595,-760.90884884,-7.685947968080808,Th(MoO4)2
mp-763681,,,,,,,
mp-758662,5.0335,-2.8398979218366236,4.005088703017506,0.0006505485511354436,-153.67598253,-6.985271933181817,Ba2GaP4HO14
mp-771321,2.5335,-1.8489059674137933,4.8509925660384985,0.0073774761111105045,-167.2877468,-4.646881855555557,Cs4GeO4
mp-777447,3.4871,-2.127097001499666,2.8759618637415283,0.7327505980000035,-89.19267577,-4.459633788500001,LiFe2F7
mp-556615,3.524,-2.4110419985253455,6.642044590078457,0.0,-206.62671579,-6.6653779287096775,CaBi6(PO5)4
mp-776819,,,,,,,
mp-767538,1.2257,-2.7454736438474043,2.8535421407937487,0.029258439204553174,-163.61047241,-7.436839655,NaCePCO7
mp-28431,0.5627000000000001,-2.075777536904445,3.9510775578816855,0.0,-68.7646327,-3.820257372222223,Sb(IF3)2
mp-4044,1.2832999999999997,-1.1987669201302085,7.224599685611361,0.0,-76.74737797,-4.796711123125,ErAgSe2
mp-7940,0.6951999999999998,-0.9839027606718752,5.134904049108125,0.02904393437499664,-44.27827597,-5.53478449625,KNbSe2
mp-868569,,,,,,,
mp-566048,,,,,,,
mp-25506,,,,,,,
mp-11684,5.5352999999999986,-3.2375258529166664,2.7963126860982546,0.040471816249999286,-189.01839321,-7.87576638375,SiO2
mp-730585,7.1301,-2.6362985092499995,2.059776807160621,0.008931920370371493,-389.77871524,-5.413593267222222,LiBH2OF4
mp-866834,1.9708,-1.648473364642857,3.051164957166084,0.12629393142857115,-66.84498694,-4.7746419242857145,Ca2SnS4
mp-752529,0.9194,-1.3693784105833338,2.155829254983169,0.09830904399999962,-46.78340531,-4.678340531,Li5CrS4
mp-561947,0.7564,-2.2693423573002067,6.34533712843916,0.0,-16.80739358,-3.361478716,CsHgF3
mp-23549,3.2839,-2.4450945509583333,5.923382234274367,0.0,-579.62431597,-7.245303949625,Bi3B5O12
mp-714929,0.3417999999999999,-1.8778917158333333,3.9895742513677823,0.1846728366666639,-43.53010711,-7.2550178516666675,CrO2
mp-777325,,,,,,,
mp-25871,0.2557999999999998,-2.3997632153021966,2.9573673096823088,0.03168491905770398,-342.63220461,-6.589080857884616,Li3Cu2P5O16
mp-961703,0.8644000000000001,0.22020397944444467,5.796603583607094,0.6252339750000004,-8.63144163,-2.87714721,NaLiPt
mp-29760,3.1486,-3.329970639333624,2.977717962789133,0.006978725203244275,-295.14477545,-7.198653059756098,Ca10P6O25
mp-5020,2.5559,-3.5015029667499995,5.696967616676616,0.0,-40.05853491,-8.011706982,BaTiO3
mp-17375,1.3295,-1.47276571835,3.87480567116094,0.0,-160.91775555,-4.02294388875,K2Na3TlO4
mp-778861,1.1214,-3.0564844698740736,3.3335798722482224,0.06638144194444262,-222.26564624,-6.1740457288888875,LiV2OF5
mp-34381,3.7607,-0.6150319536433327,2.467163329092075,0.0022350224999998503,-26.12561962,-4.354269936666666,H4IN
mp-3952,3.2492,-3.665416883809524,5.6018354807265425,0.0,-229.96680082,-8.213100029285714,BaY2O4
mp-28662,0.4362000000000004,-0.2645240300000005,7.026262920212648,0.00940949812499925,-157.86118232,-3.288774631666667,Tl2SnTe3
mp-771669,0.5112999999999999,-1.6162997759731448,3.5939805059687497,0.4958829750505061,-133.45547656,-6.066158025454545,Li5Mn5O12
mp-5029,0.3307000000000002,-2.619735828472222,7.461055173655793,0.04870028611110566,-248.67672352,-6.9076867644444455,Ho2Cu2O5
mp-699453,3.8425,-1.6295370399593745,2.9308689695632233,0.0,-692.27319911,-5.408384368046875,RbAs2H5O8
mp-774417,2.7074,-2.493927821218486,3.7156737457619333,0.00257419558823635,-239.75324375,-7.051565992647059,Sn3P6WO24
mp-754353,0.9726000000000008,-1.642025829931429,6.199148124394611,0.05140050142857256,-68.94717145,-9.849595921428572,Zr3N4
mp-764094,,,,,,,
mp-770051,,,,,,,
mp-753720,2.4517,-1.252448057767857,3.7441013853928817,0.025132025000000446,-57.59858189,-4.1141844207142855,Li3BiS3
mp-774247,2.6907000000000005,-2.2508213938621795,2.80483444302386,0.06978983307692221,-157.61136593,-6.061975612692307,Na3FeBSO7
mp-762746,,,,,,,
mp-778859,2.6271,-2.4922598256933512,3.2133301806193346,0.005514393253974959,-259.06923249,-7.196367569166666,Li3Mn2Fe(BO3)3
mp-771504,,,,,,,
mp-566524,,,,,,,
mp-31706,,,,,,,
mp-763261,,,,,,,
mp-27148,0.8435000000000006,-0.32083538904761905,2.4752813771238134,0.0,-124.22792604,-5.176163585,BeP2
mp-766928,,,,,,,
mp-555580,4.3718,-3.269487918517008,3.1742761037889826,0.0,-284.68804734,-8.133944209714286,SrZr4(PO4)6
mp-554926,,,,,,,
mp-6989,3.9034,-2.3272572632187503,4.753664255416231,0.0,-59.57633006,-5.957633006,BaSeO3
mp-761566,,,,,,,
mp-767288,,,,,,,
mp-849513,2.229,-2.0564594508730156,3.609548165118333,0.3500231694444329,-239.61141398,-6.655872610555557,Fe2Sb(PO4)3
mp-570757,0.9825999999999996,-0.4560875621180547,5.840488806993082,0.0,-326.18915744,-4.530404964444443,Nb2Tl3CuSe12
mp-763331,3.0784,-2.430081234855877,3.0888590724721223,0.6090186400000013,-86.82807208,-5.426754505,LiMn2F5
mp-772695,,,,,,,
mp-773385,,,,,,,
mp-24142,5.8393000000000015,-2.7176292543279494,2.437805150658343,0.009286218846152215,-138.44936061,-5.3249754080769245,MgAlH4O2F5
mp-32086,,,,,,,
mp-6019,3.2035,-3.4806252919166667,5.166221478923504,0.0,-160.45317587,-8.0226587935,Sr2YNbO6
mp-971707,2.2276,-3.173166499953704,7.346222944887932,0.4669246129166682,-61.93073447,-6.8811927188888875,Tm2Mg2O5
mp-29682,0.4565999999999999,-0.5847977846279768,6.399013965314291,0.0,-200.52528641,-3.5808086858928574,BaAg8S5
mp-949028,0.7334,0.012344928478260958,4.796116655427847,0.012344928478261076,-183.07770237,-3.979950051521739,Sn
mp-772875,3.4322000000000004,-1.754393394074074,4.354528938368572,0.0141181436111113,-121.84407140000002,-3.384557538888889,Ba2SrI6
mp-696125,5.2544,-2.641382466552381,2.26878772147532,0.0974226756000025,-304.6434764,-6.092869528,Li10Si(PO6)2
mp-754815,3.9934,-1.9156420183333327,3.4816063228347964,0.0,-38.078844700000005,-4.7598555875,YBr3
mp-556775,2.0399000000000003,-1.1421240468749998,3.998459713082938,0.001378870044643321,-112.26717705,-3.5083492828125,ZnS
mp-765758,,,,,,,
mp-1018737,1.6589,-0.6478810116349211,2.047950987862098,0.0,-20.12844752,-3.3547412533333336,KMgP
mp-781675,,,,,,,
mp-772572,1.138,-1.4348119149166665,3.8647796231030025,0.0015116220000006564,-135.18735406,-4.506245135333333,Rb6Co2O7
mp-1007694,2.6443000000000003,-2.5489577567516335,4.134290686349779,0.0,-182.60598859,-6.521642449642857,SnPO4F
mp-13903,3.7147,-2.7743195690175004,4.280992736466181,0.0,-35.96961294,-4.4962016175,ZnSnF6
mp-766168,1.7655000000000003,-3.1852795994999985,4.680278920248768,0.04897020166666621,-251.61671004,-8.387223667999999,Ti4SnO10
mp-989570,3.6423,-2.201791282042207,3.0722710858616327,0.015883766999999605,-37.32358114,-3.7323581139999997,Cs2CaSnCl6
mp-566106,,,,,,,
mp-772781,5.7658999999999985,-3.2919104646388884,6.586578387637423,0.04030919391665222,-246.69821959,-8.223273986333334,Lu2B4O9
mp-7907,2.1416000000000004,-0.8310970006249997,4.145149472148665,0.0,-28.55193718,-4.078848168571429,Al2ZnSe4
mp-773183,,,,,,,
mp-766983,2.0229,-3.1618950657291656,4.149492231498784,0.02671337901042037,-517.03495673,-8.07867119890625,LiCa2Nb3O10
mp-18882,2.7465,-2.6729124071840658,2.8318398706039787,0.11148970807692216,-386.43667624,-7.431474543076923,VSiP2O9
mp-694885,2.3807,-2.919971654811517,4.948546475358242,0.2984473192500108,-158.38268112,-7.919134056,CaLaMnNbO6
mp-569421,1.3411000000000002,-0.15497214014285704,6.9082284078575436,0.0,-168.17035072,-2.102129384,Hg9P5I6
mp-565782,,,,,,,
mp-777235,0.4882,-2.218502292222222,3.3406223651700078,0.022178849999995972,-263.96402881,-7.332334133611112,V5CuO12
mp-769609,1.5583,-2.4292928410416668,4.040842526619923,0.009863449687499859,-221.5803984,-6.92438745,Li4VCr3O8
mp-707027,5.0958,-3.2761419946579986,2.9067142707007187,0.0007470377222222879,-230.38991921,-7.679663973666665,CaScSi3HO9