id,band_gap,formation_energy_per_atom,density,e_above_hull,energy,energy_per_atom,pretty_formula
mp-29420,1.3131,-1.263141869,3.423889095,0,-181.3195675,-4.120899262,Hf(Se2Cl3)2
mp-754672,2.9821,-3.490799397,2.955996526,0.032580068,-107.2894237,-8.940785309,TiO2
mp-762259,0,-2.278752756,3.713020274,0.042450809,-158.5042213,-4.402895035,Li2Cu2F5
mp-16751,0,-0.374465457,10.8610446,0,-26.98314353,-4.497190588,ErCuPb
mp-770900,1.0822,-1.840596217,2.851452121,0.01255582,-145.0431614,-6.592870972,NaMnAsCO7
mp-7469,1.2742,-1.235435509,3.664425516,0,-53.48166206,-4.456805172,NaCuO
mp-530714,0.5248,-1.027448166,5.182237483,0,-411.2275007,-3.954110583,Ba14AlSb11
mp-570606,0,-0.796317537,6.547211183,0,-77.15437439,-5.511026742,Pr4Ge3
mp-756074,0,-2.023965974,7.49082114,0.090324902,-113.5609383,-6.308941014,Bi2PO6
mp-22503,0,-0.377657821,8.723395308,0,-28.28753937,-7.071884843,ZrCo2Sn
mp-697994,0,-1.345962061,3.741164327,0.037385787,-336.271826,-5.254247281,Cu3H4SO8
mp-30474,0,-0.390177518,2.948922932,0.000483615,-100.5262373,-2.792395479,Ca11Ga7
mp-637866,0,-0.770414892,5.687081775,0.054566806,-139.8152132,-6.355236962,Sc9Ni5Ge8
mp-693857,2.9611,-3.095262532,1.477390443,0.113274341,-593.5684134,-7.066290635,NaLi2Al3(SiO4)3
mp-616260,0,-3.378773204,6.314842372,0.004504416,-268.8206964,-4.800369579,KYb3F10
mp-542063,3.9628,-1.799561522,2.953724614,0,-235.5680514,-5.608763128,Rb4H6C2O9
mp-774241,2.0029,-2.016450586,2.746423153,0.053677682,-148.74957,-6.761344089,NaVAsCO7
mp-9206,0.0201,-0.301771039,6.764513322,0,-108.7277706,-3.020215851,CsAg5Te3
mp-3612,2.5015,-2.538317793,5.33056486,,-178.1379264,-7.422413599,NbSbO4
mp-13925,6.8654,-3.599160309,4.192217314,0,-54.11146968,-5.411146968,Cs2NaYF6
mp-974667,3.4137,-1.763056584,2.774507791,0.044426704,-134.9783676,-6.135380346,Rb2H2C2O5
mp-21890,0,-0.683930906,6.690048327,0,-38.70439959,-6.450733265,NdCoSi
mp-723419,1.9716,-1.522162363,2.306513892,0,-565.4264168,-4.283533461,Sb2S19F12
mp-721686,3.8131,-1.385930569,2.733426524,0.005482284,-161.6090062,-4.489139061,SnH4(ClO)2
mp-706544,2.7434,-0.547419765,1.612486252,0.00363973,-279.0429157,-4.982909209,NaGa(H2N)4
mp-765615,0.5726,-2.043850256,4.16458431,0.023597926,-143.9787249,-5.999113538,Li6Fe5SbO12
mp-572441,1.7916,-1.225523805,5.656862555,0,-261.18918,-3.6276275,Cs3AuO2
mp-571352,0,-0.34726749,5.713043639,0.077115392,-46.98021026,-6.711458609,TmB6
mp-11415,0,-0.380449594,7.415402246,0.005434528,-59.51566129,-4.578127792,Sm9Ga4
mp-15322,0,-0.668029576,4.842132914,0,-53.58370565,-5.953745072,ScCuSi
mp-976589,0,-0.074830559,5.751437267,0,-9.89329877,-2.473324693,NaIn3
mp-10765,0,0.020353055,8.850511246,0.020353055,-4.55770873,-4.55770873,Ho
mp-3922,1.3671,-0.526242485,4.924522495,0,-63.95930722,-3.997456701,AgSbS2
mp-778194,2.4184,-0.799034177,4.602006539,0.035108272,-66.74404572,-6.674404572,Ge2N2O
mp-29506,2.3292,-1.690956138,5.956369732,0,-40.02057985,-5.002572481,CsBiO2
mp-752555,3.4349,-3.613202556,5.878002914,0.056226728,-214.9412603,-7.676473583,SrLa2O4
mp-28680,3.5772,-1.220948254,3.074475137,0,-107.8965097,-2.997125269,KGaBr4
mp-976420,0,0.012151126,7.227388082,0.012151126,-18.824744,-4.706186,Nd3Ho
mp-569768,0,-0.369401919,8.608173809,0,-14.65190873,-3.662977183,NdInAg2
mp-582799,0,-0.27705739,4.060534713,0,-26.66833093,-5.333666186,EuAl4
mp-778617,0.5876,-1.811562366,4.632058554,0.067861238,-76.95199318,-4.275110732,Ni3OF5
mp-13932,0,-3.06332436,7.851653673,0,-76.89022317,-7.689022317,Ba2DyReO6
mp-28478,0.5246,-0.380605137,5.043743964,0,-147.4568096,-3.072016866,NaTe3
mp-558241,2.0351,-0.955783797,6.173935859,0,-163.6878943,-5.115246696,TaTl2AgS4
mp-640926,0,-0.897172179,2.571019124,0.00314327,-213.7491096,-5.937475267,Cu(NO3)2
mp-505071,0,-0.453006237,10.19248449,0,-249.747922,-5.676089135,Si2Pd9
mp-540997,1.2702,-1.139738004,2.440718047,0,-61.27368975,-3.404093875,FeTeCl7
mp-769516,0,-2.023094679,2.837929011,0.043552211,-299.1534798,-6.232364162,Na2NiPCO7
mp-21503,0,-0.411136144,4.907289733,0,-36.17095764,-4.018995293,YMgIn
mp-19119,0,-2.066585972,6.823893211,0.108056079,-64.22340499,-6.422340499,Sr2NiOsO6
mp-21712,0,-0.79683792,7.299968553,0,-234.4353502,-6.51209306,Tb2Ti3Ge4
mp-763418,0,-0.841039372,3.185984044,0.592082923,-81.4392804,-5.42928536,Li2Fe3O10
mp-22323,0.9604,-1.988078657,6.941641659,0.029448328,-56.24671106,-5.624671106,In2O3
mp-541947,1.3674,-0.753315485,4.371982358,0,-273.5103153,-4.558505255,Rb2Th(PSe3)3
mp-676923,1.8172,-1.47890996,8.23566808,0.121467222,-199.6175893,-5.253094456,Cd2Bi6O11
mp-753657,0,-3.486006097,4.171737835,0.000795473,-24.00211097,-8.000703657,TiOF
mp-4519,3.6802,-2.939170015,4.745767282,0,-26.10352622,-6.525881555,KPrO2
mp-754933,1.7748,-2.63870802,8.732320121,0.098145874,-26.09096074,-6.522740185,SmTlO2
mp-37550,0,-1.273713698,10.52699049,0.090291758,-182.5490785,-9.127453926,Mg2Ta3N5
mp-11418,0,-0.526782973,7.758843573,0.018394449,-15.82660253,-3.956650633,TbGa3
mp-18739,0,-2.69458435,5.903390372,0.074904367,-151.3062214,-7.565311068,BaYMn2O6
mp-776147,0.0037,-2.23768942,3.961352149,0.060846419,-376.1301547,-6.716609906,Li2TiFe3O8
mp-979041,0.0675,-0.325660117,5.464474014,0,-91.35705875,-6.525504196,Tm(AlC)3
mp-546295,0,-2.170645971,6.81932983,0.00751275,-65.74904077,-6.574904077,Sr2CuOsO6
mp-7379,0,-0.079429583,8.031301143,0,-30.58927398,-2.549106165,TlCdSb
mp-1009134,0,0.093465175,8.733744708,0.093465175,-17.43214978,-8.71607489,MnFe
mp-28171,1.0264,-1.390575543,2.772864361,0,-16.02935511,-3.205871022,K3IO
mp-669918,0,-0.425560366,10.00895513,0.006754077,-117.9388804,-7.371180023,VSnRh2
mp-707343,4.7771,-1.435513292,1.846361543,0,-321.7446038,-5.958233403,ZrH12C2(NF)6
mp-10314,0.43,-0.693262022,7.13617492,0,-16.83648511,-3.367297022,Yb(ZnAs)2
mp-15889,0,-2.727317226,7.212179852,0,-140.5425383,-7.027126915,Ba2LaIrO6
mp-6310,3.8154,-3.313043174,4.758923088,0,-739.9390345,-7.707698276,Ba3Y(BO3)3
mp-554853,3.0661,-2.63094983,3.731595478,0.00470725,-271.2305624,-6.457870534,Na4Si3(SnO6)2
mp-866157,0,-0.850271509,9.2780247,0,-29.02275788,-7.25568947,TiGaRh2
mp-559534,0,-2.714187474,5.973793421,0,-305.6489321,-6.367686086,Ba5Al2In2IrClO13
mp-775017,0,-2.271219542,3.522833189,0.041987493,-164.5658386,-6.85690994,Fe3Ni(PO4)4
mp-2865,0.3388,-2.554195026,3.192216151,0.00017143,-119.5261065,-4.268789519,K2CuF4
mp-977453,0,-0.427837715,4.437329014,0,-9.38253314,-2.345633285,Ca2CdIn
mp-757586,2.4969,-1.798086085,4.727788428,0,-178.0933258,-5.238038995,Ba2Tl(HO)7
mp-770532,0.6418,-2.396974515,3.698892306,0.039380166,-121.3489293,-7.584308081,Mn2PO5
mp-505543,0,-0.650078354,8.864475754,0.001319318,-248.3343869,-6.898177414,Lu2CoB6
mp-4513,0,-0.483624837,7.908373279,0.000508047,-45.83134032,-4.166485484,Ho2Ga8Co
mp-30721,0,-0.060894821,13.5857421,0.036681873,-24.6019998,-1.7572857,Hg5Pd2
mp-772425,0,-2.255350992,2.663427284,0.078551079,-234.1660601,-6.162264739,Li3V(SO4)3
mp-779903,0.6719,-2.306716939,4.262405563,0.088652774,-140.739846,-5.864160249,Fe4O3F5
mp-757723,5.8658,-2.043691271,2.515196796,0,-233.2541267,-5.831353167,SrH4(SO4)3
mp-568778,0.8077,-0.229574054,5.181358784,0,-229.4266642,-3.186481448,CuTeBr
mp-21766,1.685,-1.036487873,4.901912853,0,-229.1337847,-4.091674727,Ba(InSe2)2
mp-866016,0,-0.656211983,12.85257645,0,-17.19795648,-4.29948912,AcBiAu2
mp-11358,0,-0.231177358,12.33766487,0,-34.11014959,-8.527537398,TaCo3
mp-561058,4.0408,-2.602246353,3.046794832,0,-352.4329296,-6.293445171,Na3Ga(PO4)2
mp-21810,0,-0.784689198,9.112296994,0,-225.8303997,-5.942905255,Tm5(Ge5Rh2)2
mp-756103,2.0475,-3.035966301,6.827142042,8.19E-05,-102.7917673,-7.342269089,Y2HgO4
mp-769480,3.4273,-3.377667393,5.44152488,0.072794151,-482.5344861,-8.042241435,Y4Ga2O9
mp-567590,0,-0.399945517,17.44109693,0,-112.6363489,-9.386362407,LuOs2
mp-780580,3.3259,-2.20734447,2.4546186,0.067805464,-257.9246404,-6.448116009,LiMnPH2O5
mp-505564,1.0179,-0.946139366,4.007465899,0,-171.3250244,-3.294712008,Bi2Se4Cl7
mp-556283,2.7325,-3.140535644,2.711791153,0.011348347,-270.5908155,-7.516411542,Na2TiSi4O11
mp-971740,0,-0.33255914,3.909191454,0.377698068,-22.06047677,-2.757559596,Sr3As
mp-24104,4.858,-2.812447507,2.206868402,0.007651772,-178.2658148,-6.856377493,LiAlSi2H2O7
mp-771338,4.616,-3.184924011,3.612192139,0.005870944,-293.8986283,-7.734174429,La2P4O13
mp-767716,2.1676,-2.986773024,2.876230396,0.07210758,-392.8820013,-7.555423102,LiVSi3O8
mp-515,0,-0.283499695,11.64482048,0,-7.41212683,-3.706063415,TmTl
mp-1016843,0,-1.403290602,7.255145387,0.644345747,-32.51672447,-6.503344894,MgOsO3
mp-976818,0,0.122200897,12.26948363,0.122200897,-20.11958748,-5.02989687,Ni3Au
mp-22841,1.9867,-1.676376122,4.25055268,0,-334.0990542,-4.640264641,Ba2In2S5
mp-707473,3.6676,-1.941786942,3.381466994,0.003164491,-558.2442702,-5.815044482,InP(H2O3)2
mp-974426,0,0.552532297,17.28442306,0.552532297,-78.26167973,-9.782709966,Re3Sn
mp-505467,0,-1.011293971,6.511131456,0,-160.8378014,-6.70157506,YSiPd
mp-4689,0,-0.251664128,4.18661985,0,-181.6471158,-4.541177895,Al7FeCu2
mp-756452,4.5279,-3.882135421,8.042554268,0.075041125,-165.6468627,-8.282343137,SmDyO3
mp-616378,0.5537,-0.953411815,4.281712124,0.002924642,-28.45804859,-2.845804859,CsSnI3
mp-15319,0,-0.26457082,9.97138607,0.089539992,-152.2040499,-7.610202497,Lu2C3
mp-2250,0,-0.410028463,8.190259687,0.046627785,-42.66824062,-7.111373437,ZrNi2
mp-569178,1.2665,-1.381467578,7.457173014,0,-19.44988009,-4.862470023,HoTlSe2
mp-5306,0,-1.495872742,4.816210438,0,-194.5019089,-7.480842652,Nb4CrS8
mp-867868,0,-0.505749655,10.73783645,0.032802547,-23.1481973,-5.787049325,Sm2AgIr
mp-767556,2.6858,-2.661027168,2.331682066,0.023783282,-165.454004,-7.520636545,NaTiPCO7
mp-22694,3.5284,-2.522573681,5.311981728,0,-364.6633237,-6.511845066,LiPPbO4
mp-6110,3.5103,-3.06977937,5.401711798,0.051649246,-70.01912194,-7.001912194,Sr2YSbO6
mp-776762,0.9032,-3.093429936,2.947158519,0.020876942,-304.4955057,-5.437419745,LiVF5
mp-559635,0,-2.728492751,6.075405501,0,-142.5803863,-6.480926652,Sr3CaIrO6
mp-866668,0,-1.109259005,3.84009027,0,-25.91783088,-2.879758987,Rb2SbBr6
mp-561018,3.7232,-3.034231859,2.539567513,0,-252.6710736,-7.431502164,Na3Sc2(BO3)3
mp-561536,3.5852,-2.767097761,2.839585948,0.005614008,-77.80619044,-6.483849203,NaMgBO3
mp-560036,5.7359,-3.365217459,2.874822387,0,-699.903207,-6.99903207,Li2Ca3Be3Si3(O6F)2
mp-850985,4.0655,-2.387500176,2.988243508,0.062141397,-319.7161493,-6.660753111,LiFeP2HO7
mp-1925,0,-1.678200182,5.668866381,0.089902507,-15.36834086,-7.68417043,ZrS
mp-770540,0,-2.419891424,3.821457354,0.016463257,-243.4311997,-7.607224989,Mn2PO5
mp-975912,0,0.865733053,8.648246101,0.865733053,-32.36383363,-8.090958408,Mo3H
mp-849554,0,-2.446946759,3.133827935,0.074191937,-503.6902161,-7.40720906,Li2Mn3(BO3)3
mp-15964,0,-0.372546187,12.13151706,0,-141.9208576,-8.8700536,Hf3Sb
mp-850221,2.3277,-1.066741427,1.813805001,0.016011961,-494.0466296,-5.255815208,H28RuS2(N3O5)2
mp-19067,2.2239,-2.392452466,3.345190212,0,-262.0582662,-7.082655844,Mg3V6(FeO6)4
mp-505527,0,-0.789091766,4.254735391,0,-273.1549253,-7.587636814,Ti5Si4
mp-540193,1.6166,-2.539100727,2.480577669,0.056770605,-155.4419496,-7.065543163,LiMnP2O7
mp-625406,3.7573,-2.315280732,4.281287399,0.00140195,-87.06402443,-6.218858888,La(HO)3
mp-780181,1.7359,-1.675856719,2.457461531,0.083597016,-479.8251746,-6.313489139,Na2Cr4O13
mp-218,3.7823,-3.883495326,6.961764698,0,-332.2353634,-8.305884084,Sm2O3
mp-24733,5.6689,-1.810544411,2.232315713,0.022165252,-1029.321424,-5.594138176,NaZnP3(H4O5)2
mp-756587,2.3165,-3.411924126,3.81976563,0.11145534,-212.6858409,-8.861910038,TiO2
mp-3949,1.693,-0.10335644,1.693421003,0,-218.946213,-3.421034579,K7LiSi8
mp-555234,3.7336,-2.43213916,3.974888062,0,-51.25475766,-4.271229805,RbSbBrF3
mp-30232,0,-1.406849665,6.229983033,0,-136.1708129,-4.863243318,Tb3SiBr3
mp-12666,0,-0.074307907,3.220987809,0.074939601,-50.89815086,-3.915242374,Be12Pd
mp-1009592,0,0.124867207,7.715285238,0.240472905,-20.86434824,-6.954782747,CrFeTe
mp-773068,4.2911,-3.182613786,3.002421665,0.011099816,-286.4728601,-7.957579447,LiZr2(PO4)3
mp-436,0,-0.738848601,9.764585174,0,-13.54098423,-6.770492115,SmRh
mp-976343,0,-0.919811905,10.70185848,0.017854979,-23.1810045,-5.795251125,HoErPd2
mp-22284,0,-0.773013912,8.745658316,0,-51.24712933,-4.270594111,SrInPt
mp-30103,0.789,-1.141551653,5.161419209,0,-137.8054578,-2.870947037,AuF5
mp-30045,0,-0.151296498,7.703665222,0,-67.23750498,-5.603125415,CoGe2
mp-865211,0,-0.808831691,11.27877723,0,-25.15923921,-6.289809803,TmInRh2
mp-778879,1.0131,-3.044036485,3.342658439,0.057750744,-221.7115102,-6.158653062,LiV2OF5
mp-560956,4.0745,-3.127994201,4.041765219,0,-50.3280611,-5.03280611,Cs2KCrF6
mp-23507,2.3132,-0.75299222,4.728201914,0.005164995,-49.87932977,-3.117458111,InSn2Br5
mp-29542,2.6222,-1.708473773,4.518029881,0.004260062,-104.3262292,-4.742101329,K4Bi2O5
mp-38695,1.5368,-1.681239236,5.683762582,0.015412026,-40.47878621,-5.059848276,LiTbSe2
mp-14241,1.6512,-0.483289498,5.858135296,0,-47.05490146,-3.921241788,Tl2SiSe3
mp-569617,0.0619,-0.790333513,4.004727831,0,-47.08396861,-4.280360783,Ca3Zn2(CuP2)2
mp-684965,0,-0.937271565,5.693555594,0.412265174,-222.585032,-6.955782251,ZrSe
mp-21318,0,-0.156481292,13.76722387,0.028372564,-27.85843327,-4.643072212,PtPb2
mp-558209,4.8814,-3.403023606,3.219754865,0.03757589,-399.6620227,-7.136821834,Ca3Mg(SiO4)2
mp-762507,0,-1.899026506,4.435564201,0.033333618,-94.3035569,-5.893972306,Li2CrNiO4
mp-778739,0.3066,-1.640925838,4.71557552,0.112575849,-186.5803153,-5.830634852,LiCu5(PO4)2
mp-556004,1.3193,-2.407079836,5.898232509,0.008211671,-64.5525612,-5.3793801,Ba3In2Br2O5
mp-766919,0.811,-2.146137299,3.664335809,0.099259026,-147.8375694,-6.159898723,Li8MnCr3O12
mp-31083,0,-0.829951097,6.549358362,0,-56.44027859,-7.055034824,PrSi2Ru
mp-780499,3.0424,-2.46800942,3.177562946,0.004853592,-170.7056653,-7.112736054,Li2MnFe(BO3)2
mp-3010,0.0191,-3.372792714,4.516410602,0.011504429,-91.07792972,-5.059884984,Rb2TbF6
mp-27365,0.7327,-1.032490386,6.169072143,0,-171.6303101,-4.290757752,BaBiSe3
mp-600063,5.6966,-3.277217252,1.660654561,0.011933764,-1138.070367,-7.903266434,SiO2
mp-1777,0,-0.326510483,2.139316395,0,-106.6285475,-2.806014407,Li15Ge4
mp-849718,2.4331,-3.230093336,3.511726879,0.02255161,-724.5266953,-8.050296615,Na2Ti4O9
mp-505576,0,-0.34752041,6.600842925,0.046535791,-185.4739359,-4.880893049,Zr6Al7Cu16H9
mp-39260,4.105,-3.020664364,2.774059145,0.025974169,-278.0054119,-6.177898041,Na2CaPO4F
mp-624221,0,-0.479250306,10.43039392,0.01078762,-108.8738613,-6.804616333,Ge3Rh5
mp-22048,0.0065,-1.142020358,11.24226765,0,-81.429866,-5.816419,Pt2PbO4
mp-686296,3.2017,-3.094326945,5.993008246,0,-653.7713186,-8.172141482,CaGd2Zr(GaO3)4
mp-14410,0,-1.224076388,9.47262833,0,-91.31854382,-4.806239148,Tl6TeO12
mp-22766,2.0006,-2.414027252,5.355077991,0,-82.619726,-5.901409,CaIn2O4
mp-24646,5.7884,-2.539228772,2.737484711,0.00333086,-240.5481996,-6.681894433,NaAlBP2H3O10
mp-1019361,0,-1.039900835,8.8133425,0,-35.59873545,-5.933122575,ThSbTe
mp-558349,5.0449,-3.320270508,4.574135327,0,-295.0977306,-7.026136442,Ba5P3ClO12
mp-30733,0,-1.09475454,12.16125027,0,-53.78565525,-5.976183917,HoSnPt
mp-22339,0,-0.533679243,10.66494224,0,-60.39100015,-6.710111128,ThCoSn
mp-4354,0,-0.266955573,7.816842326,0.022771693,-22.23723882,-4.447447764,Tl(NiSe)2
mp-9127,2.8624,-2.398237935,5.357450247,0,-57.12191866,-6.346879851,Ba(SbO3)2
mp-20294,0,-0.42971874,8.057716809,0,-30.04858401,-4.292654859,CeIn5Rh
mp-626851,1.8555,-1.453591897,3.191629039,0.099887139,-168.268383,-5.428012356,Fe4H14O13
mp-764727,2.0835,-2.005845577,2.47810229,0.02956572,-143.0366949,-4.767889828,Li8NiO5F
mp-752405,4.716,-3.814864291,7.034173391,0.021597076,-265.148781,-8.285899406,Dy2SiO5
mp-3667,3.9783,-1.732544924,1.718210426,0,-170.2219432,-6.079355115,P2S2O3
mp-2252,0,-0.840387519,3.660545166,0,-22.2107528,-7.403584267,ScB2
mp-27350,0.0832,-0.247921173,2.702507377,0,-380.1985353,-4.526173039,U(BH4)4
mp-999054,0,-0.204052698,6.582034026,0.233161488,-26.75112849,-6.687782123,Ti2GaCo
mp-18707,0,-0.59237959,5.788568703,0,-79.43611285,-3.309838035,Mg3Pt
mp-754822,0.5842,-2.481863351,4.725119335,0.10122637,-188.4850768,-6.731609885,Li4Ti3Sn5O16
mp-14515,2.105,-1.403967915,3.638451196,0,-262.3882832,-4.685505057,NaNd(GaS2)4
mp-2530,2.5238,-1.038500453,3.378537552,0,-10.07386179,-3.35795393,Li2Te
mp-697753,2.8872,-2.655469959,2.928287412,0.025614865,-282.0541804,-7.051354509,Li3Cr2(PO4)3
mp-18706,0,-0.660654666,5.888895625,0,-122.9746095,-6.831922749,Y5(FeTe)2
mp-865464,0,-0.295229069,5.02051529,0,-44.40666033,-5.550832541,PmSi3
mp-864631,0,-0.447283215,8.69084893,0,-28.50412052,-7.12603013,LiNbRh2
mp-849558,0.8327,-2.882728856,3.583926542,0.031975347,-192.9418876,-6.029433988,Cr4OF11
mp-1989,0,-0.61481835,12.77836474,0,-160.943568,-10.058973,Ta5Si3
mp-559878,0.3397,-1.575882085,4.219231654,0,-179.3995925,-4.983322013,K2Na2IrO4
mp-17694,4.2272,-3.460312408,2.96808696,0.003186947,-356.3554319,-7.127108637,Ca5Al6O14
mp-675941,1.6667,-0.624978927,2.380923998,0,-74.05920288,-3.702960144,Li7IN2
mp-22259,0,-2.316775846,8.261151948,0,-153.3183092,-6.969014055,Yb2Ru2O7
mp-541823,0.1604,-1.059585514,4.527275275,0,-93.10001396,-6.650000997,TlCr5S8
mp-31107,2.062,-1.653765577,7.924435134,0,-263.7749294,-5.734237595,As2Pb8O13
mp-23875,0.4636,-1.183361331,2.399834213,0.040330971,-77.33804646,-4.296558137,CuH4(ClO)2
mp-19921,1.5253,-1.489269637,8.579362184,0.001337105,-21.81285279,-5.453213198,PbO
mp-11793,0.7756,-1.236206859,6.964570728,0,-82.95787055,-5.184866909,SmCuSe2
mp-556467,1.5716,-1.466172606,2.947320681,0.000195272,-352.3517723,-5.18164371,Rb4Nb2S10O
mp-13620,0,-0.682076525,8.203651756,0,-156.8081593,-7.127643605,ScSi7Ir3
mp-1903,0,-0.235357544,3.425431331,0,-18.0937941,-3.61875882,BaAl4
mp-560186,4.1139,-3.322462108,3.847069232,0.016965443,-294.7028478,-7.016734472,BaMgSiO4
mp-510582,0,-0.593522993,7.552422858,0,-95.99935115,-4.799967558,NdNiSnH2
mp-19789,0,-0.411427766,13.75827153,0,-100.985387,-10.0985387,Mn(BW)2
mp-761341,1.1908,-2.977311186,4.279281059,0.02961772,-100.1277212,-8.343976763,TiVO4
mp-559715,4.5943,-2.594294149,3.089145844,0.005517524,-505.5137127,-6.65149622,Li2Cd(PO3)4
mp-33325,0.868,-2.220103685,4.270009717,0.023939412,-364.0350661,-6.50062618,Mg(FeO2)2
mp-2013,0,-0.195588156,11.89312943,0,-12.46126192,-3.11531548,HoTl3
mp-766275,1.6688,-1.811029136,7.646558962,0.087321794,-167.3559421,-5.770894557,Ca2Bi10O17
mp-850305,3.713,-1.591197052,3.993565306,0.090414512,-38.61953485,-3.218294571,SrCaI4
mp-12884,0,-0.646094221,10.61996105,0,-68.15564756,-7.572849729,Hf5Te4
mp-28584,1.5763,-0.496909894,6.455841285,0.00942599,-65.48731077,-2.728637949,Tl2CuI3
mp-554018,5.2405,-3.369034948,3.490986231,0.02183093,-400.9659049,-7.160105444,Mg3BeAl8O16
mp-972960,0,-0.706325471,11.03489964,0.059107531,-24.81593347,-6.203983368,La2IrAu
mp-989558,4.7796,-2.872502299,5.345254829,0,-44.43672172,-4.443672172,Cs2TlGaF6
mp-972454,0,-0.061595862,5.885976123,0.007356716,-22.44364152,-3.74060692,Sm2Mg
mp-541956,3.0085,-2.562854337,4.311462198,0,-440.6021585,-6.884408726,CsTiAsO5
mp-29373,0.2452,-0.222738791,4.449151813,0,-90.81702052,-3.784042522,KAlSb4
mp-579086,1.8229,-3.228015082,4.090014093,0,-170.6157464,-7.7552612,KSrNb2O6F
mp-696651,4.0956,-3.074991293,2.682182161,0,-141.6580635,-5.448387057,K3NbHOF7
mp-11311,0,-0.290006243,9.034267565,0,-7.17766571,-2.392555237,TmCd2
mp-10811,1.9873,-1.230842431,3.719150112,0,-93.0568219,-6.64691585,NaSr4(BN2)3
mp-19367,2.8661,-2.906330285,3.428844499,0,-148.4690674,-7.423453371,NaCr(SiO3)2
mp-21849,0,-0.952646046,11.27291214,0,-43.6321496,-8.72642992,Eu(SiIr)2
mp-752426,0.6525,-1.122168623,3.077776831,0.061089747,-65.3725746,-4.085785913,Li3SbS4
mp-772529,3.1883,-2.88980522,6.835231648,0.068371758,-211.5144502,-8.135171163,Y2W2O9
mp-779305,2.6808,-2.381293551,3.103436495,0.035901572,-208.7092477,-6.522163992,Li2FeBO4
mp-2480,0,-0.182076607,10.62412232,0,-74.96767828,-6.247306523,OsSe2
mp-568322,0,-0.616742403,3.967803909,0,-74.33338634,-5.309527596,Sr3Li3(NiN)4
mp-7573,0,-0.456018895,14.32375625,0,-48.66639424,-9.733278848,Co(BW)2