id,band_gap,formation_energy_per_atom,density,e_above_hull,energy,energy_per_atom,pretty_formula
mp-776281,1.583,-2.348513933,5.589504672,0.006155733,-391.7517852,-9.79379463,Zr2N2O
mp-31412,0,-0.831339855,9.770785692,0,-29.12144019,-4.853573365,PrSnAu
mp-3715,0.0409,-0.220013449,7.934555615,0,-124.2815682,-5.178398674,CoGeTe
mp-570076,0.4272,-0.307826079,6.956868897,0.002952255,-24.69029929,-3.086287411,Tl2CdSnTe4
mp-762050,0,-2.038349907,3.747894792,0.09539615,-253.7920134,-6.190049106,Li4Cu7(PO4)6
mp-12174,0,-0.539138922,11.44805795,0,-294.4555294,-7.361388235,HfNi3
mp-12787,5.6222,-3.278911686,2.427300545,0.01023933,-142.2892956,-7.904960868,SiO2
mp-8449,3.8479,-2.505079318,3.416669342,0,-101.4514041,-5.636189115,Rb2Li2SiO4
mp-5584,0,-0.577048508,6.600197194,0.059857307,-81.89766679,-6.299820522,Ga(MoSe2)4
mp-643069,4.3203,-1.623212291,2.64830927,0,-83.66887139,-4.18344357,Li2HIO
mp-22214,0,-2.504720913,4.126871742,0,-40.44579188,-4.493976876,Rb2RhF6
mp-4276,0,-0.618984328,6.537695985,0,-62.87473535,-5.239561279,NaSi2Pd3
mp-20868,0,0.004900398,13.50090985,0.019971477,-119.4583467,-9.954862222,Fe2W
mp-1008394,2.2452,0,1.67356748,0,-7.3539447,-1.838486175,Cl2
mp-29393,0,-3.243835977,6.633488229,,-179.5511033,-8.977555166,UNb2O7
mp-772739,0,-1.229463041,5.08657111,0.20145113,-159.3399438,-5.9014794,Fe2CoO6
mp-8226,2.3044,-3.129682513,9.218002855,0,-52.34394746,-8.723991243,ThNF
mp-755389,0,-3.189093291,6.067061977,0.043514757,-33.5021296,-8.3755324,CaEuO2
mp-1014252,0,-0.966638691,12.33375361,0,-87.8423518,-8.78423518,Hf3ZnN
mp-29988,1.3551,-1.246891863,3.493912712,0.004016095,-109.984255,-3.437007967,CsPd2Cl5
mp-766328,0.3803,-1.458045277,6.644158358,0.052144842,-222.3870672,-5.424074809,Ag7Sb9O25
mp-570673,0,-0.285317953,7.335250141,0.004552933,-36.93572717,-6.155954528,ScNi5
mp-1007906,0,-0.420635764,9.294573174,0.170943184,-17.29683877,-4.324209693,ErH
mp-8388,0.3795,-2.554366456,3.187251978,0,-59.76545328,-4.268960949,K2CuF4
mp-20378,0,-0.666760248,7.866868224,0,-40.11222202,-3.342685168,CaInAu
mp-976751,0,0.146299396,6.824492874,0.146299396,-44.51522219,-5.564402774,Nd3Zr
mp-581968,0,-0.846620931,11.35358218,0,-54.49443405,-5.449443405,Tm2Pd2Pb
mp-780200,3.6175,-2.131340039,2.75526611,0.074963946,-247.8781902,-6.196954754,LiFePH2O5
mp-571212,0,-0.356138781,8.594385836,0,-37.95864053,-2.372415033,Yb5Ag3
mp-19334,3.8015,-2.144514915,4.684363036,0,-113.0789147,-5.653945733,Na4WO5
mp-2684,0,-0.659413157,7.760867084,0,-12.66704146,-4.222347153,TbGa2
mp-560019,3.8565,-2.423327308,3.471399648,0.000712169,-225.8133532,-6.641569211,K2Ge3(BO5)2
mp-2667,1.0239,-0.306996648,6.51413455,0,-4.78300498,-2.39150249,CsAu
mp-13956,0.8682,-0.108716483,5.605578366,0,-177.503509,-3.697989771,Ag2PSe3
mp-677335,4.7096,-2.61310218,2.866228918,0,-41.02473684,-6.83745614,GaPO4
mp-552802,0,-2.756622693,8.433414226,0.037440199,-68.05327118,-8.506658898,ErU2S3O2
mp-18678,0,-0.822498777,8.491992613,0,-125.8194474,-6.29097237,Nd2Ge5Rh3
mp-934,0,-0.231059525,8.348367374,0,-4.73704087,-2.368520435,LiTl
mp-961663,0.3215,-1.044984573,6.429624012,0.11917943,-13.13956416,-4.37985472,SrTePd
mp-865905,0,-0.682923704,10.67185544,0,-23.70087091,-5.925217728,YbPmRh2
mp-777181,0,-2.849085643,3.377883303,0.139410965,-288.2746016,-8.007627822,Ti2Nb(PO4)3
mp-1018076,0,-0.106648888,6.185838233,0.071174146,-15.03401953,-3.758504883,Ga2BiAs
mp-689943,1.2195,-2.120210284,2.884729037,0.026416491,-161.0908446,-6.712118526,CoPO4
mp-510377,0,-0.469647767,10.13784189,0.018036746,-41.35821045,-8.27164209,EuBRh3
mp-23568,2.1924,-0.898438311,3.128066422,0,-189.7504989,-3.649048055,XeN2(OF4)2
mp-34459,1.9351,-2.420277427,5.284580584,0.052282896,-84.50880188,-6.036342991,Ba(NdS2)2
mp-556986,5.0821,-3.283747092,4.237267248,0,-329.011486,-7.477533773,Er2B2Cl2O5
mp-22626,0,-2.098956881,4.496786199,0,-137.7307596,-4.918955699,OsF6
mp-18383,2.3437,-1.561988652,2.287751204,0,-159.190902,-4.974715687,K3NbS4
mp-755357,3.7405,-2.824874825,5.313097795,0,-86.53569406,-7.211307838,NdAsO4
mp-752706,1.9568,-3.829635294,5.645124061,0.017454137,-339.2579,-9.423830554,CeZr11O24
mp-3191,0,-0.680226455,7.448019825,0,-35.74949013,-7.149898026,Ho(FeSi)2
mp-862759,0,-0.325598249,5.679847327,0,-10.23606306,-2.559015765,PrMgZn2
mp-779257,0.7555,-2.082921502,3.822884441,0.088399209,-95.97944901,-5.998715563,Li3Cu3(PO4)2
mp-763752,0,-1.733441303,4.395039832,0.035011428,-87.7221702,-5.84814468,Li3Mn2(NiO4)2
mp-1876,0.0599,-0.73034271,4.99722906,0.045236798,-8.9345014,-4.4672507,SnS
mp-542772,2.3395,-1.50997453,4.143636393,0.009762148,-24.5433274,-3.067915925,CsAgCl2
mp-1013712,0,-0.264014506,3.440789654,0.735344702,-16.63099408,-3.326198816,Ba3SbP
mp-31140,0,-0.27961542,9.001168004,0.412355288,-19.87061297,-3.311768828,BaBiAu
mp-676306,0.3436,-1.137159614,6.928561243,0,-107.2624772,-4.875567145,Dy7(CuTe4)3
mp-764888,1.3592,-2.386212362,3.265101911,0.034176723,-321.8904289,-6.997618019,Li3Fe4(BO3)4
mp-18919,0,-1.108806644,7.746730012,0,-23.30219325,-5.825548313,CoPdO2
mp-772060,0.8922,-2.228681305,4.23253168,0.089481862,-100.2590908,-6.683939389,Li3NbFe3O8
mp-773599,0.8922,-1.907325161,5.824219703,0.026700291,-281.6786546,-5.868305304,NaSb3O8
mp-757388,4.9662,-1.519424301,1.616242333,0.044515718,-271.7577555,-5.661619907,PH6NO4
mp-778149,2.3633,-2.888538519,2.548570444,0.02667453,-667.7127703,-7.257747504,Li6Ti3P8O29
mp-760361,2.697,-0.590315587,1.10235645,0.217660649,-175.0168887,-4.375422217,H3NCl
mp-10302,0,-2.794530771,7.2277671,0,-144.6987003,-7.234935013,Ba2ScIrO6
mp-973114,0,-0.405526281,11.81831174,0,-29.25807397,-7.314518493,HoLuRu2
mp-768149,1.9883,-3.019528588,7.469398956,0.004663787,-210.8051445,-7.02683815,DyInO3
mp-975528,0,-0.360037254,10.36175134,0.002552605,-15.54458683,-3.886146708,NdDyTl2
mp-24412,2.3494,-0.324962026,1.660953542,0,-59.99042716,-2.999521358,K2NaAlH6
mp-879,0,-1.608165581,6.776267027,0,-77.21318837,-5.515227741,La3Te4
mp-625548,1.637,-1.384753892,4.647875881,0.011081115,-22.77080752,-4.554161504,Cd(HO)2
mp-570351,0,-0.271364881,6.258710205,0,-78.42722521,-3.26780105,Na2Sn3Au
mp-850935,0,-1.654273532,4.8907568,0.111692623,-126.7662421,-5.281926753,CoOF
mp-601322,0,-0.645656887,5.12900842,0,-117.9195538,-4.535367453,Ba6Ge5N2
mp-776,0,-0.337829666,6.833367333,0,-6.51698522,-3.25849261,LaCd
mp-973896,0,0.528942498,9.212120873,0.566661755,-16.73805869,-4.184514673,Ni3I
mp-20727,1.9264,-1.923478234,6.633993758,0,-54.62595962,-6.069551069,Sb2PbO6
mp-30738,0,-0.167998127,17.36844212,0,-29.17144583,-7.292861458,LiIr3
mp-3501,0,-0.297727604,8.846941004,0.022117768,-99.47264063,-7.105188616,Er(Fe2Ge)2
mp-561166,3.6856,-2.58865263,3.895158135,0,-162.2371106,-6.75987961,Na2ZrGe2O7
mp-888,0,-1.093137808,3.565779476,0,-53.01847293,-4.418206078,CaAs
mp-753803,2.3181,-1.956674217,4.366103209,0.092942202,-88.11710549,-4.405855275,Cs2CaO2
mp-225,0,-0.262028243,7.990223875,0.024981631,-75.02228867,-2.083952463,ErZn5
mp-764781,0.8105,-1.581224299,4.725527973,0.101174196,-84.19758133,-5.613172089,Li3(CoO2)4
mp-30387,0,-0.598478389,16.20972011,0,-20.66494025,-4.13298805,HoAu4
mp-569531,1.8372,-1.257782318,3.831625738,0.0049802,-74.26438182,-3.094349243,Rb2CuBr3
mp-19006,1.9546,-2.00386134,5.190708089,0,-31.42507396,-7.85626849,MnO
mp-20941,0,0.014062179,9.591885101,0.014062179,-19.49272252,-4.87318063,UIn3
mp-1018025,2.1572,-2.727202664,8.244931165,0,-26.71618343,-6.679045858,LuAgO2
mp-542138,0,-0.510017444,3.560785276,0,-153.0897108,-4.784053464,Ca3Si2Ni3
mp-768301,5.6445,-3.309319722,6.133421285,0.030715382,-247.095525,-8.2365175,Ho2B4O9
mp-768231,4.2308,-2.949831908,4.05989039,0.080893945,-59.91855765,-7.489819706,YHO2
mp-753318,4.5152,-3.486408879,6.097585215,0.060143966,-82.79052092,-8.279052092,DyBO3
mp-779404,2.6702,-2.086116105,4.024518922,0.007125295,-509.4166212,-6.367707765,Li3Cr2(AsO4)3
mp-7129,1.6801,-1.342858223,3.709246522,0,-88.14434996,-4.896908331,Rb2Ti(CuS2)2
mp-2319,0.7749,-0.525430156,9.334691978,0,-47.22514018,-7.870856697,P2Os
mp-27140,1.856,-1.995596041,4.466920476,0,-198.2915066,-5.832103136,K2Sb4O11
mp-1013529,0,-0.136148611,3.913149513,0.557015332,-21.63784751,-4.327569502,Sr3N2
mp-505034,1.157,-1.218680705,3.77176448,0,-47.94453993,-4.794453993,Cs2MnS2
mp-21008,0,-0.290054189,9.008467998,0,-23.1177324,-5.7794331,Ni3Ge
mp-976772,0,0.192508303,9.85220185,0.192508303,-13.49424399,-3.373560998,NiAg3
mp-505431,0.6193,-0.565631958,3.499412198,0,-78.27989947,-3.261662478,K2LiInAs2
mp-675759,1.7111,-3.698806047,7.491386024,0.209920737,-365.326417,-8.495963186,Tm10Ti6O27
mp-11750,0,-0.654770905,4.445878868,0,-70.80486319,-7.867207021,Ti6Si2B
mp-24214,5.7255,-2.197252788,2.150570782,0.004000379,-226.1523097,-5.653807744,KPH3O4F
mp-978264,0,0.501156934,14.08470899,0.501156934,-76.95717117,-9.619646396,MgW3
mp-755798,2.6368,-2.864213733,7.889930557,0.034689942,-156.9972325,-7.849861626,ZrPbO3
mp-23262,2.1773,-1.657594393,9.044278952,0,-115.0548296,-5.752741482,Bi2O3
mp-705295,0,-2.211951424,2.832235333,0.0989758,-281.0327593,-6.387108166,LiNiP2O7
mp-36836,0,-2.461993341,5.171043993,0,-300.7076656,-6.682392568,Sr4Ru2O9
mp-19956,2.0755,-2.884303754,5.978944343,0,-81.78193529,-5.841566806,Ba2InO3F
mp-505772,4.1979,-1.804505881,2.443997978,0,-417.2540973,-5.795195796,Rb2NaH5(CO4)2
mp-10969,2.3242,-0.093336075,4.596316081,0,-26.41849661,-6.604624153,CdCN2
mp-582828,0,-1.531094499,5.532004525,0,-86.80894232,-5.425558895,La3Ge3Cl2
mp-1216,3.4728,-3.652172914,11.72298899,0,-13.05959888,-6.52979944,YbO
mp-600186,2.5604,-1.430688473,3.623707764,0,-109.9236312,-3.925843971,Cs2MnBr4
mp-773514,1.161,-1.675640866,3.065479496,0.093838907,-127.1401217,-5.297505069,Li2CoO3
mp-19277,1.9138,-2.183262536,3.17859209,0.027692487,-94.55307517,-6.753791084,VSO5
mp-27355,2.8493,-2.230052553,7.652769119,0,-102.4828883,-5.124144417,Pb2OF2
mp-558362,3.6236,-2.890382212,3.598541062,0,-181.4708488,-6.481101744,CaMgGeO4
mp-998307,0,-0.929736449,5.237482423,0,-15.60925859,-3.121851718,CsPdBr3
mp-756639,3.6883,-3.278607498,3.543424331,0.014069309,-164.2971535,-6.085079757,Li2NbOF5
mp-772435,2.6472,-2.724256174,3.107284797,0.035479295,-153.9930408,-6.416376701,Li3Al2FeO6
mp-21108,0,-0.001738592,18.24423294,0.022757069,-152.4647567,-10.89033977,U6Fe
mp-6676,0,-2.889695564,6.367782308,0,-142.9352688,-7.146763441,Sr2HoRuO6
mp-560174,4.8271,-2.58255448,2.69838991,0,-744.2728867,-6.645293631,NaZn(PO3)3
mp-541081,4.8202,-2.161601764,2.384307336,0.018580293,-179.1841365,-5.599504266,NaMg2H3(SO4)2
mp-850409,1.5207,-2.454733698,4.180190262,0.05479073,-173.3506476,-5.77835492,Fe2OF3
mp-17481,4.2121,-3.269444088,6.001454511,0,-234.4153043,-7.813843477,Mg4Ta2O9
mp-29892,0.9744,-1.981590911,5.859429158,0,-143.7608475,-5.990035314,LiSb3O8
mp-2895,4.6395,-3.239900821,3.116440067,0,-192.8758144,-6.888421943,Mg2SiO4
mp-758916,4.1307,-1.729612167,2.659630768,0.004014482,-382.179097,-5.97154839,Ga2P3H12(NO4)3
mp-570870,0,-0.43251665,9.665745669,0.001875682,-185.9449763,-6.640892009,Hf5Sb9
mp-21066,0,-0.770826342,11.37661377,0,-114.9479191,-9.578993258,TaMnP
mp-780353,0,-2.344730091,3.211967154,0.07253411,-364.1668844,-6.278739386,Na6B4Sb2SO16
mp-19417,2.0201,-2.818023611,4.626966298,0,-80.7866437,-8.07866437,TiFeO3
mp-643276,3.16,-0.439938143,2.659887441,0,-83.80027578,-3.809103445,LiMg2H7Ru
mp-3802,0,-0.573984815,12.60107758,0,-166.876462,-10.42977888,Ta4AlC3
mp-23493,1.4876,-1.357225829,4.913361586,0,-171.6007631,-5.047081269,Ce(IO3)4
mp-695316,4.1827,-1.972373157,2.234505464,0,-237.9652103,-5.408300234,Ca2AlH10BrO8
mp-734,0,-0.500660744,9.379989146,0,-6.23160347,-3.115801735,LaHg
mp-7349,0,-0.478606899,6.763417261,0,-32.36855718,-6.473711436,Ba(BRh)2
mp-774,0,-0.109744866,6.747575084,0,-31.55204639,-5.258674398,CaNi5
mp-850957,3.0984,-2.529414159,2.456137742,0.040351997,-182.7015652,-6.090052173,Na6Ti2O7
mp-28257,5.2712,-2.134806043,1.946600741,0,-152.5692654,-4.767789542,SOF2
mp-37263,1.1018,-1.488718315,6.344534638,0.029851463,-69.04634933,-4.931882095,Ca(NdTe2)2
mp-999002,0,-0.328931978,7.879204549,0.177411687,-30.78035875,-7.695089688,TiFe2As
mp-752849,0.9987,-2.559228465,7.433624194,0,-156.1482632,-7.097648329,Y2Pb2O7
mp-22645,0,-0.894856502,8.363162398,0.008005271,-66.62316143,-5.551930119,PrSnPd
mp-6571,0.4792,-1.987610499,4.536740927,0,-267.072765,-6.069835568,BaCuAs2O7
mp-504790,0,-0.677477972,5.088427808,0,-115.3375053,-4.805729387,LiYSn
mp-996960,1.4335,-0.6091655,3.945509234,0.039318364,-43.34127629,-5.417659536,AgNO2
mp-574620,2.1117,-1.421146228,4.652519264,0,-55.26195326,-4.605162772,CsYZnSe3
mp-972077,0,0.401726604,8.206782212,0.401726604,-22.61980906,-5.654952265,TcGe3
mp-20336,0,-0.125454205,9.914808244,0,-23.82340538,-5.955851345,USn3
mp-752989,0.1548,-3.373686109,3.97427353,0.010166173,-188.9678246,-8.998467838,Ti8O13
mp-1018665,0,-1.589219931,6.758352269,0.04039179,-35.36196369,-5.893660615,CeSe2
mp-30252,0.6714,-0.256699131,3.893978479,0,-69.4031594,-3.01752867,Na10CaSn12
mp-6704,0.5786,-2.979773515,7.020636574,0.02404102,-127.0082293,-7.056012741,BaNd2CuO5
mp-12241,0,-0.945333473,4.35537429,0,-166.3014157,-3.959557518,Ca11Sb10
mp-777474,3.226,-2.883366272,2.94090792,0.042637343,-122.4688067,-5.102866948,LiFeF4
mp-766336,3.4085,-1.605685466,3.982629332,0.094265372,-167.1107776,-3.276681914,Ba6Ca11I34
mp-31309,1.4737,-0.909153986,4.204816001,0,-115.0720446,-3.596001393,RbInSe2
mp-697855,2.7567,-2.57710091,3.082796723,0.03518789,-333.5387358,-7.250842082,Li2Cr3(P2O7)2
mp-674367,0,-1.855789495,9.818715818,0.00603279,-458.2921527,-7.638202545,Re6Pb5O19
mp-6031,3.3622,-1.020141165,2.635067313,,-141.8495762,-5.253688009,Li16Nb2N8O
mp-972246,0,-0.407117566,10.41883918,0,-168.7412863,-8.437064315,Tb2ReC2
mp-558466,2.4875,-1.678130656,3.131044404,0,-159.9281705,-3.634731149,AsS(BrF2)3
mp-865916,0,-0.398691665,13.40356449,0,-43.45881376,-10.86470344,TiVRe2
mp-616559,0,-1.309501076,4.802687609,0,-278.2461177,-7.729058824,Ti2S
mp-17213,2.3435,-1.76409909,4.790551919,0,-161.4940409,-4.485945581,Cs4SnO4
mp-21509,0,-0.487745897,5.012263551,0,-33.0744985,-3.674944278,LaMgGa
mp-985439,0,-0.876676296,7.63561822,0,-26.47607705,-4.412679508,BaPAu
mp-27556,3.319,-2.85264081,4.588324003,0,-303.6078308,-7.59019577,CsNbO3
mp-22690,0,-3.136607119,5.604340529,0.047344555,-78.3167136,-4.8947946,TbCdF6
mp-5124,0,-0.118833762,8.806979006,0.066613427,-25.31844349,-6.329610873,MnNi2Sb
mp-28523,0,-1.303989767,10.30391534,0,-184.3691507,-9.218457533,Li2Ta3N5
mp-1018828,0,-2.399837829,10.48110436,0,-55.71256756,-9.285427927,NpSeO
mp-557691,3.4153,-3.868584506,6.378685063,0.029788915,-125.6260535,-8.375070233,La2O3
mp-776023,2.5256,-2.537928648,4.724748073,0.026953701,-253.6715227,-6.341788066,CdSiO3
mp-755318,3.6721,-2.962514745,3.155394696,0.053686691,-59.75032616,-7.46879077,ScHO2
mp-989608,3.0865,-1.814493132,3.132620436,0.014360023,-33.44506056,-3.344506056,Cs2NaAsCl6
mp-755585,0,-0.836478811,5.334014683,0.284786859,-34.0150637,-4.251882963,LiAgO2
mp-771261,0,-1.661065715,4.03843214,0.093206305,-327.6245532,-6.825511525,Mn3FeO8
mp-867689,0.7926,-0.886066875,3.51375955,0.079406402,-24.25976816,-4.043294693,LiCuS
mp-28102,3.2217,-2.252076499,5.175347343,0,-210.7427712,-5.853965866,Ba3Te4O11
mp-571262,0,-0.421638178,7.485836008,0,-35.92217034,-5.98702839,CaRh2
mp-862777,0,-0.46909532,12.63533754,0,-34.38395874,-8.595989685,TmPaRu2
mp-707732,4.5536,-2.10881352,2.194002203,0.06306557,-278.510239,-5.925749766,Na4ZnP6(HO2)12
mp-720312,4.9795,-2.473714919,2.223482962,0.003202822,-1100.21677,-6.876354815,Na2B5H3O10
mp-866140,0,-0.657946764,8.943883954,0,-23.91586696,-5.97896674,TiGaPd2
mp-690544,0.5743,-2.136736311,5.631209231,0,-87.30196622,-6.23585473,Ga2FeO4
mp-557260,4.2682,-2.829282972,4.014980414,0,-190.0316223,-4.750790557,RbSb2F7
mp-26952,0,,3.320115782,,-234.444029,-6.895412616,Sb(PO3)4
mp-2334,0,-0.244950605,9.025031271,0,-9.19463738,-4.59731869,DyCu
mp-770884,3.8079,-2.078130061,2.883991834,0.092481242,-150.0754039,-6.253141828,Li2SnCSO7
mp-761540,0,-1.348904374,5.572426132,0.056965367,-139.6670065,-5.819458605,Co3SbO8
mp-998430,1.4536,-0.930313771,3.332149754,0.019815385,-51.42397986,-2.571198993,CsInI3
mp-554142,3.789,-1.716671813,4.973092248,0,-103.4322279,-5.746234881,Ge(TeO3)2
mp-616564,1.3654,-1.26644554,5.144900185,0,-85.98712929,-4.777062738,RbPbIO6
mp-3788,3.7469,-3.48414338,3.157394728,0,-176.142186,-7.339257748,SrAl4O7
mp-1009206,0,0.308362803,7.841311914,0.308362803,-12.5519211,-6.27596055,MnSn
mp-20404,0,-0.833869669,8.901197156,0,-53.42037759,-5.342037759,Sm2InPd2
mp-29959,0.8468,-0.231916789,5.752470194,0.000741142,-41.34711589,-4.134711589,TlBSe3
mp-6929,3.323,-2.532741952,3.435926233,0,-70.74534089,-6.431394626,Ca2As2O7
mp-768092,0,-2.513280702,2.536755714,0.058495496,-236.2788588,-5.906971471,LiVSO4F3
mp-10191,1.4771,-1.682989919,5.991179924,0,-72.78999936,-5.199285669,Lu2MgSe4
mp-771043,4.0397,-3.866651765,5.226472563,0.084453095,-408.5915519,-9.286171634,Y2Zr2O7
mp-541537,3.492,-2.485677684,3.258658668,0,-365.679159,-5.713736859,K2ZnSiO4
mp-973748,0,-0.122033923,6.136707446,0.00609641,-10.65168335,-2.662920838,LiIn3
mp-760507,0,-1.410516465,6.370223704,0.016776378,-74.72707844,-6.227256537,AsRhO4
mp-976713,4.7024,-2.487417404,5.478811877,0,-71.37744178,-5.948120148,HoH2ClO2
mp-570084,1.2214,-0.212878977,6.448460496,0,-45.90376154,-2.550208974,Hg3AsSe4I
mp-971739,0,-0.364706761,15.22556874,0.001790489,-18.94460394,-4.736150985,ZnCuPt2
mp-21011,0,-1.193097989,7.390066574,0.031078898,-92.06500815,-6.576072011,Ce4As3
mp-570959,0.5863,-1.514674483,6.063461747,0,-69.37268237,-4.955191598,Dy2CdSe4
mp-554012,4.6494,-1.765062671,1.885912391,0,-187.3357071,-4.683392677,SClO2F
mp-555462,5.0657,-2.10162077,2.381471777,0.037049755,-163.4316165,-5.836843447,Al(HO)3
mp-560717,0.7414,-1.083054082,5.508875031,0.026723114,-204.3623448,-5.676731799,Ag2CO3
mp-558696,0,-1.254070326,5.38491625,0.036123236,-104.7652184,-5.238260921,CuTeO3
mp-582406,0,-0.389822572,7.512576349,0,-53.96006496,-4.905460451,Gd2(Zn2Ge)3
mp-30443,0,-0.286774952,4.176712735,0,-387.7402603,-4.846753254,Be17Ru3
mp-773079,5.186,-1.792328956,2.044060631,0.003404484,-617.0127135,-4.97590898,AlZnH16N(OF)6
mp-1018043,0,-0.005681089,6.820490263,0.257576057,-25.67883174,-6.419707935,Ti2InCo
mp-862932,0,-0.221882222,9.738668675,0.001080838,-16.70663824,-4.17665956,ThInAg2
mp-569385,0,-0.636881316,6.560883508,0,-40.85486401,-5.106858001,DyAl2Ni
mp-23985,3.123,-1.146643018,2.210567815,0,-139.519918,-4.650663934,LiH6BrO7
mp-1002222,0,0.958062444,11.98082002,0.958062444,-8.40329647,-4.201648235,TlN
mp-505525,0,-0.190668073,8.009166108,0.069789983,-214.2334417,-7.651194346,Nb4Zn2C
mp-778503,0.0288,-2.748876415,3.336511053,0.058646879,-272.1246716,-7.559018656,Ti3Fe2Sb(PO4)6
mp-583800,0,-0.064551621,7.008820659,0.071281816,-171.1039284,-7.129330351,Zr2Cu
mp-30454,0,-1.0268342,12.54233738,0,-17.60298763,-5.867662543,ErBiPt
mp-971767,0,0.106517456,11.39315853,0.106517456,-1.75782835,-0.439457088,ZnHg3
mp-768877,1.7434,-1.989790113,5.275498419,0.038764629,-274.9475395,-6.248807717,Sn2Ge2O7
mp-27386,2.7235,-1.031288383,4.973701182,0.002884134,-35.20966467,-2.071156745,TlHg5Cl11
mp-1006146,0,-0.54637882,6.423791573,0,-24.02768515,-4.80553703,Eu(MgBi)2
mp-560767,3.5358,-2.806732278,2.952355984,0,-79.73100489,-6.644250407,KNaTiO3
mp-707508,2.1252,-1.214744373,2.222887069,0.043646797,-297.9789161,-5.959578321,Na2H5RuN5O12
mp-622620,0,-0.668026603,9.45719401,0,-65.43657972,-5.45304831,ErNiSn
mp-19446,3.2632,-3.133549396,3.388741009,0.010312442,-154.0506267,-7.702531335,CaMn(SiO3)2
mp-775168,0,-2.00397065,3.673512961,0.037948828,-157.133392,-6.547224666,MnCu3(PO4)4
mp-556902,3.7612,-2.514511977,3.178781105,0,-135.2941436,-6.149733799,KLi4NbO5
mp-1307,0,-0.324200182,4.154638755,0,-11.17408333,-2.793520833,LiGa
mp-31298,0,-0.909810703,10.30092975,0,-55.95953601,-6.217726223,ErSnRh
mp-26591,1.0649,-2.786624279,3.074949556,,-272.9574359,-7.582150997,LiNb2(PO4)3
mp-961694,0,-0.012677211,5.978356129,0.663613338,-18.33616167,-6.11205389,TiNiGe
mp-29513,3.2665,-1.419398323,3.858523892,0,-94.59830698,-2.627730749,CsXeF7