id,band_gap,formation_energy_per_atom,density,e_above_hull,energy,energy_per_atom,pretty_formula
mp-867171,0,-0.475726694,3.935595277,0,-11.41230288,-2.85307572,SrLi2Sn
mp-10347,2.1782,-3.343973095,6.281334057,0.023103125,-136.2340725,-8.514629531,CsCa2Ta3O10
mp-30010,2.4572,-1.758635678,3.115035305,0,-121.9022074,-3.386172428,AsKrF7
mp-757890,3.4233,-2.516757616,5.876914377,0.046777727,-549.0539859,-6.536356975,LiSiBiO4
mp-755449,0.3597,-0.619082141,5.768271902,0.059504115,-55.62263451,-3.973045322,Cd(AgO2)2
mp-551456,2.3014,-2.454021172,4.316923775,0,-32.37928798,-5.396547997,Ba2CuClO2
mp-555891,5.3872,-3.281596813,1.991234698,0.007554203,-94.89175194,-7.907645995,SiO2
mp-22066,0,-0.498538716,8.523063677,0,-24.54221443,-4.908442886,Dy(CuGe)2
mp-34425,1.5749,-1.855790208,5.085485357,0.04055239,-255.7360847,-6.088954398,Zn(FeO2)2
mp-781607,0.459,-2.41157223,3.126339985,0.094978801,-242.0032843,-7.562602635,LiMn3(BO3)3
mp-756342,0.8739,-0.202155455,4.755707465,0.051988792,-45.1525637,-3.762713642,AgBrO4
mp-541005,4.5535,-1.496411994,2.919310123,0,-345.9282151,-4.804558542,CsH5O3
mp-867358,0,-2.125436018,5.509990536,0,-46.43156232,-7.73859372,PuCl2
mp-684619,0,-1.891595954,6.316815641,0,-395.4763047,-5.902631413,Pr27Se40
mp-31097,5.0593,-0.295983728,1.224814361,0,-78.37314606,-3.265547753,KAlH4
mp-20425,0,-0.243900433,8.313737166,0,-30.19240892,-7.54810223,NpSi3
mp-2172,1.519,-0.489051147,3.590700647,0,-9.37404722,-4.68702361,AlAs
mp-24030,4.1126,-2.547052032,2.706817654,0,-79.22264748,-7.202058862,ZrP2(HO3)2
mp-757312,3.9372,-2.513021969,3.347753015,0.013316046,-402.2447123,-6.704078538,NaInBP2HO9
mp-864957,0,-0.130387063,10.34878392,0,-32.34018197,-8.085045493,MnSbRu2
mp-21223,0,-0.423752659,8.99500431,0,-29.0116433,-3.626455413,YbIn2Ni
mp-862287,0,-0.877223368,8.161791175,0,-25.680373,-6.42009325,BeAlRh2
mp-39226,2.1,-3.698828924,6.099868295,0.019714617,-400.293821,-8.005876421,SrLa4TiAl4O15
mp-31630,2.1562,-3.18208022,7.139476073,0,-322.0305667,-8.050764166,Ba2TaCrO6
mp-674478,4.1689,-2.650593306,3.698107659,0.050085789,-74.16455869,-7.416455869,BaCO3
mp-756426,0,-3.274138507,5.859582775,0.10342415,-110.4223059,-9.201858823,ZrNbO4
mp-8499,0,-0.322848988,8.354271548,0,-58.36589495,-8.337984993,Ho2Cr2C3
mp-752400,2.0349,-3.838530825,6.839305834,0.081033539,-186.2201802,-8.464553645,Ce2Sm2O7
mp-1019380,3.3595,-1.312184206,3.267976183,0.251676332,-60.23019853,-7.528774816,Al3BN4
mp-680061,2.3752,-2.099149847,4.524459603,0.050081035,-536.6141125,-5.962379028,Rb2Sn(GeO3)3
mp-673663,0,0.050658365,3.291240513,0.12034521,-58.54043507,-4.878369589,CuGe2P3
mp-504898,0.4941,-0.620533742,6.214696732,0,-143.4872763,-5.518741395,Nb2Pd3Se8
mp-13955,0,-0.586539034,5.668841762,0,-34.65320108,-5.775533513,SmSi2
mp-722294,0,-0.547604023,8.035986486,0,-183.7743933,-6.56337119,Nb3Zn3N
mp-685862,1.9544,-3.807903059,7.442826968,0.100823725,-740.035177,-8.605060198,Tm10Ti6O27
mp-974982,0,0.131395496,2.625986722,0.184371562,-5.27587376,-1.31896844,Rb3In
mp-19453,2.81,-1.720752343,4.777382284,0,-241.6344124,-6.040860309,Te2MoO7
mp-752906,0,-2.22092325,7.477809819,0.014427561,-98.8226376,-5.813096329,Ba4Pb3O10
mp-703308,4.9013,-2.556546107,3.183917252,0.000491255,-426.2562722,-6.660254253,CsGaP3HO10
mp-1014231,0,-0.170475138,11.75830631,0,-21.69270786,-7.23090262,Hf2Zn
mp-543051,0,-0.816451569,9.757705886,0,-166.1719812,-5.192874414,Lu5Sb3
mp-753793,6.8982,-4.26243855,5.226062216,0.048472318,-125.7696158,-6.288480791,Ba2YF7
mp-8866,0.5697,-1.818919139,6.168211208,0,-336.6301183,-5.803967557,La10Se19
mp-19414,1.2331,-1.950516413,2.411989045,0.013200573,-86.92899779,-5.433062362,K3CrO4
mp-2938,0,-0.678680766,7.629166941,0,-35.64187817,-7.128375634,Tm(FeSi)2
mp-17979,4.7773,-3.472223588,3.262580599,0.002018337,-396.8866501,-7.632435578,BaAl2(SiO4)2
mp-756508,0.1358,-2.523756796,3.433368118,0.086602105,-120.169601,-7.510600063,NbPHO5
mp-738663,2.4831,-1.395333802,2.633442118,0.046217059,-698.2660699,-6.019535085,Sn2H10C4N2O9F2
mp-15013,2.8263,-1.20718153,2.310307409,0,-116.7157335,-4.863155563,RbBS2
mp-767765,0,-0.939577093,2.644078776,0.075067216,-168.1800472,-3.43224586,Li34Sb8S7
mp-1018896,0,-0.58294716,11.13668229,0.046328725,-27.01523299,-4.502538832,PrPbAu
mp-1006256,0,-0.298995683,9.254915538,0.008633575,-18.33158845,-4.582897113,CeYTl2
mp-1014227,0,-1.154585361,5.650050352,0,-59.27579033,-7.409473791,Ti2ZnN
mp-1559,1.5099,-0.902356383,2.661927823,0,-201.8378494,-5.045946234,Mg3N2
mp-707841,6.2819,-1.339849915,1.605325005,0.013316171,-240.8731246,-5.474389194,PH6NO3
mp-764295,0.5942,-0.968503081,4.321879437,0,-143.9809834,-4.644547851,Na4(NiO2)9
mp-19337,1.8813,-2.46228342,6.352758064,0,-188.4729116,-6.282430386,Ba3CoSb2O9
mp-6758,0.4049,-0.374386318,3.540848051,0.003672607,-104.8994136,-2.913872599,KNa4SnSb3
mp-1328,0,-0.260951038,8.276098537,0,-34.32156463,-5.720260772,SrRh2
mp-19314,3.1087,-2.789391518,3.125257973,0,-351.4309104,-7.639802401,Mn4Be3Si3SO12
mp-1873,3.48,-2.617374312,4.67488017,0,-23.93210006,-3.988683343,ZnF2
mp-757947,0.1147,-2.535487594,2.678296391,0.064696535,-313.1735141,-6.808119871,Li2Sn(PO3)5
mp-20983,0,-0.344398762,7.043102676,0.012082877,-63.02667529,-7.878334411,V2InC
mp-5051,0,-0.362415017,8.963794012,0,-61.09413555,-8.72773365,Ho2Mo2C3
mp-648893,3.3849,-2.334165961,2.71633375,0.003919765,-640.616645,-6.159775432,Na4V2O7
mp-3345,0.0086,-0.532221127,4.403425307,0,-70.12232343,-4.382645214,Cu3AsS4
mp-12418,0.4579,-0.613454855,3.565903908,0,-40.5978357,-3.383152975,SrCaGe
mp-4437,0,-1.143917987,6.467528225,0,-38.23019438,-4.778774298,NdTe2Se
mp-866290,0,-0.796754349,10.94847233,0,-26.49573458,-6.623933645,DySnRh2
mp-14730,2.8708,-2.50701537,3.751881751,0.024689088,-416.6341106,-6.509907978,NaSiSbO5
mp-554944,2.1049,-2.657849862,2.684518692,7.40E-06,-204.3942835,-7.29979584,TiSO5
mp-1019277,0,-0.47239226,8.709997445,0,-14.21278504,-2.368797507,SrHgPb
mp-1019717,5.6438,-2.163817845,2.657732927,0,-396.3152995,-6.192426555,CsBS3O11
mp-813,0,-0.484133523,3.009750361,0,-30.56228797,-5.093714662,ScAl2
mp-675592,0.2983,-1.736097568,7.525749173,0.138397449,-186.1525168,-5.640985358,Ca(Bi2O3)2
mp-505798,1.6704,-1.130090274,3.203227589,0,-299.0363485,-4.153282618,Na4TiSe4
mp-1682,0,-1.148055925,6.65020086,0,-61.96590222,-7.745737778,ZrAs
mp-5388,2.7212,-1.765657084,5.478718322,0.013698994,-155.1711185,-5.541825659,Zn(SbO2)2
mp-31019,0,-0.116963266,3.226501098,0,-242.20366,-4.657762692,Al45Cr7
mp-1073,0,-0.36655264,4.408704883,0,-3.65013443,-1.825067215,CaCd
mp-8697,4.1348,-3.45680908,3.346911306,0,-85.94870924,-8.594870924,ScBO3
mp-776229,1.0034,-2.147994787,4.338423727,0.053731815,-373.3247057,-9.333117642,Ti2N2O
mp-6088,1.6692,-2.408486991,6.124615695,0,-52.70133099,-6.587666374,LaCuSO
mp-4622,7.5986,-3.384006972,2.059945739,0,-221.4941709,-5.273670735,Li2BeF4
mp-569978,0.4368,-1.910182707,2.734868641,0.00874125,-61.23136812,-4.71010524,Na2Ti3Cl8
mp-569082,0,-0.149017051,9.432952608,0.00530664,-101.6445573,-5.979091606,Sm(Sb3Os)4
mp-3239,0,-0.829753553,7.823924653,0,-33.78680197,-6.757360394,Er(CoSi)2
mp-555370,0,-1.131865711,5.417968121,0.080599406,-52.58462558,-7.512089369,V(MoS2)2
mp-14560,0,-3.473924758,6.570820225,0.075455317,-185.415435,-8.427974317,Ca2Ta2O6F
mp-972680,0,-0.402190805,8.277737176,0,-21.63014269,-4.326028538,Sm(AgGe)2
mp-28160,1.2876,-1.166970272,2.500823783,0,-91.05353851,-5.690846157,Ca3C3Cl2
mp-13334,1.0767,-1.956746475,6.556764238,0.041167773,-55.49040444,-5.549040444,ZnSnO3
mp-16179,0.5923,-0.696370922,5.123229488,0.004330067,-68.06869825,-4.254293641,SrCu2GeSe4
mp-867303,0,-0.032600207,15.99952901,0.006891668,-12.77993929,-3.194984823,AgAu3
mp-545735,0.1331,-2.776886258,6.427632184,0.001949087,-71.00765574,-7.100765574,Ba2NdRuO6
mp-865274,1.3006,-0.859537654,5.415850931,0,-123.8863616,-3.871448798,TlInS2
mp-17424,0,-0.577316421,9.132723741,0,-77.16835633,-5.144557089,TmGa3Ru
mp-641069,0,-0.490972796,8.599699628,0.015647231,-90.43966942,-5.024426079,Pr5NiPb3
mp-683899,1.2899,-0.177482813,3.350398795,0,-271.4628372,-4.52438062,Cu2P8Se3Br2
mp-1189,0,-0.485049237,4.888727919,0,-27.47007105,-4.578345175,PrAl2
mp-18981,3.2271,-2.989642982,5.598384305,0.052290799,-69.2339486,-6.92339486,Sr2CaWO6
mp-760484,4.5013,-3.509290793,6.500367021,0.03043399,-82.7648088,-8.27648088,TmBO3
mp-560591,2.7187,-3.383295058,3.532999262,0,-308.5121112,-7.71280278,NaTi2Al5O12
mp-756988,0,-3.008642339,3.435730281,0.127486932,-134.8526597,-6.742632985,Nb5OF14
mp-26210,0,-2.325915102,3.999530219,0.043476169,-135.123782,-6.756189099,BiP2O7
mp-570798,0,-0.74059495,10.12964179,0,-171.2010922,-5.903485938,Er3(P3Pd10)2
mp-695608,2.0294,-3.10610675,1.993175966,0.144295852,-580.7221957,-7.081977996,Rb8BaNaAl11Si13O48
mp-2973,3.1727,-2.611386674,5.773557262,0,-275.8649825,-6.896624562,Pr3Sb5O12
mp-542448,2.0789,-1.079936336,4.181003001,0,-94.9795656,-3.392127343,Cs3GaSe3
mp-775137,0,-1.939471408,3.406808898,0.019093501,-153.3430054,-6.389291891,CoCu3(PO4)4
mp-12385,3.4657,-3.592262259,6.839388955,0,-83.45314235,-8.345314235,Ba2YTaO6
mp-14795,0.4271,-0.92161328,2.792611174,0.029107365,-75.73548799,-3.442522181,K6CoSe4
mp-1019734,0,-1.23331189,6.466094301,0.003386149,-226.8440987,-9.451837447,EuBN2
mp-7767,0,-2.142091306,4.744502977,0,-37.63462595,-3.763462595,RbAgF3
mp-12098,0,-0.74274043,4.947134092,0,-30.33750101,-6.067500202,K(PRh)2
mp-558504,3.7606,-2.134253468,4.202386375,0.003825422,-308.8064871,-4.825101361,BaZnTeCl2O3
mp-775125,2.2156,-2.528307462,2.980502494,0.087351561,-276.5353153,-6.584174174,Li8Fe3Sn(PO4)6
mp-573373,1.6868,-0.94420373,2.164405759,0,-105.6067948,-2.64016987,PICl8
mp-1914,0,-0.663139187,5.954497519,0,-14.51813901,-4.83937967,YGa2
mp-1018812,0,-0.441867708,7.68190458,0.008877347,-41.41866049,-6.903110082,NbGeAs
mp-780226,3.8726,-2.630617998,3.877801207,0.094764345,-166.9763242,-5.963440149,Li3LaO3
mp-559849,2.986,-2.654401288,4.272222093,0.002722142,-348.400815,-6.221443125,Ca(GaO2)2
mp-541989,3.0424,-0.600903781,2.158377941,0,-30.81173991,-6.162347982,Na2CN2
mp-30280,0,-0.840924549,4.284751451,0,-279.4769932,-4.366828018,K4(TiTe3)3
mp-983607,0,0.328292822,7.089203289,0.328292822,-53.67835817,-6.709794771,V3Cd
mp-536,0,-0.280257832,8.619952574,0,-13.90250033,-2.780500066,ThZn4
mp-637378,0,-1.023799051,8.48253322,0,-58.07355143,-11.61471029,Gd3InN
mp-752606,0.0282,-2.351303784,3.385797265,0.062350729,-49.05664577,-6.132080721,Li2CuSiO4
mp-864943,0,-0.45075969,10.2940412,0,-27.28511593,-6.821278983,MnBe2Ir
mp-706301,4.8339,-0.684263257,2.032142771,0.017525711,-408.0772471,-4.250804657,HClO4
mp-769583,1.5117,-2.397294083,3.953202397,0.034193189,-211.5259353,-7.05086451,Li3VCr3O8
mp-744430,3.1874,-2.125448037,3.065497466,0.003184316,-517.6986337,-6.63716197,Mn5P4(HO2)10
mp-1956,0,-0.595687012,8.602062925,0,-24.65315321,-4.108858868,TmGa2
mp-4606,0,-0.312879977,5.987179567,0,-79.18498485,-6.091152681,U(Al2Fe)4
mp-31443,0,-0.275319746,8.442812979,0,-16.53290951,-4.133227378,Li2InIr
mp-569294,0,-0.584954073,8.248514194,0,-45.55122262,-7.591870437,NdB2Rh2C
mp-11262,0,-0.554134772,16.42268179,0,-17.39399824,-3.478799648,YbAu4
mp-19117,2.8479,-2.310307887,3.653413789,0,-118.396777,-5.919838849,Li4MoO5
mp-1014229,0,-0.151017606,5.462443555,0,-17.52013435,-5.840044783,Ti2Zn
mp-720857,4.4105,-1.708514721,3.371919993,0.005223405,-245.8525113,-5.587557075,SbH3SO6
mp-762088,1.6619,-1.832641904,4.050701781,0,-295.3834246,-6.153821345,K2OsO5
mp-570553,0.7845,-0.369858389,4.088309092,0,-127.7932008,-6.389660042,FeP4
mp-757953,1.3234,-3.217657347,5.263867544,0.105450227,-153.2796178,-9.016448103,ThNb4O12
mp-25976,0,-2.218991227,3.422603281,0.027795012,-120.4965863,-6.694254795,Cu(PO3)2
mp-567472,0.8797,-0.087136672,3.66470105,0.004421246,-333.3641872,-4.630058155,CuP4I
mp-5461,2.9963,-1.746167811,4.390006694,0.003548134,-71.55894981,-5.963245818,Rb3TaO8
mp-553988,5.659,-2.919920434,4.202880526,0.047646254,-50.95985153,-4.246654294,Cs2LiF3
mp-32895,5.787,-3.273567226,1.296353904,0.01558379,-1137.544763,-7.899616408,SiO2
mp-9978,0,-1.527118044,7.954759282,0.039297604,-32.2555283,-5.375921383,ErSe2
mp-554593,4.1046,-3.752405919,8.796437804,0.005138096,-111.8060362,-9.317169685,TbTaO4
mp-556506,0.7801,-2.657574891,4.142719963,0.004355775,-68.19781674,-4.871272624,MnCdF5
mp-765970,1.7439,-2.510809708,5.942809202,0.036786438,-211.6097592,-7.053658641,Ti3Sn7O20
mp-713,0.6695,-0.458235598,2.884903151,0,-53.3971781,-3.337323631,KAs
mp-720263,0,-1.251954235,3.232742245,0.012516578,-221.8052435,-5.04102826,CuH4SeO5
mp-1018122,0,0.006502867,9.362598624,0.006502867,-13.41502621,-4.471675403,Tm
mp-1019716,4.4902,-2.740872339,2.314473781,0,-556.0060493,-6.950075616,CsLi4(BO2)5
mp-561973,1.0204,-1.636722048,4.769100325,0,-189.9366166,-5.276017129,K(TeO3)2
mp-12341,1.3641,-1.103381924,5.017132608,0,-45.99887053,-3.833239211,CsPrZnTe3
mp-18628,0,-0.433281702,8.284642282,0,-350.8440841,-7.309251751,Dy5B2C5
mp-972120,0.1539,-0.653571945,5.010324704,0,-81.23573551,-4.061786776,Sr(GaAs)2
mp-754434,1.1015,-1.810907791,11.60086306,0.07344835,-74.34892672,-10.62127525,Hf3N4
mp-34145,0,-1.892795309,5.491626344,0.113061569,-79.78124424,-5.698660303,Ce2CdS4
mp-975361,0,-2.33294883,5.501095055,0.236316623,-29.92793339,-5.985586678,RbErO3
mp-21382,0,-0.722210151,7.770300784,0.016764179,-51.63106829,-5.163106829,Dy2AlGe2
mp-673669,0.8795,-2.031461723,6.940171706,0.039059303,-224.7007614,-5.913177932,In4(SnO4)3
mp-7917,0,-0.937790385,9.575608363,0,-41.75968916,-6.959948193,HfGeSe
mp-977230,0,0.622618173,3.375833591,0.622618173,-13.59192212,-3.39798053,Li3Tc
mp-557492,2.0496,-3.643058589,5.075477706,0.044119923,-329.5881401,-8.673372108,LiLa5Ti8O24
mp-644324,4.3219,-1.972340099,2.531973676,0.005953179,-107.573897,-5.661784054,K2FeH4(SO5)2
mp-754948,0,-1.709329074,4.793889106,0.013202839,-75.21614362,-4.178674646,Cu6OF11
mp-22907,0,-0.848979638,9.724472013,0,-10.20164811,-5.100824055,DyBi
mp-103,0,0,13.17563633,0,-19.90845562,-9.95422781,Hf
mp-554335,0.5892,-1.426282391,2.474843893,0.0070488,-311.120733,-5.018076338,K2CuH12(SeO7)2
mp-12549,0,-0.36227809,3.790139468,0,-51.56137232,-4.296781027,BaAl9Ni2
mp-771898,4.5796,-2.337541588,3.575789737,0.03510966,-154.0946021,-5.503378647,Cs2SO4
mp-14551,2.2058,-3.596673647,5.831040742,0,-155.9780507,-7.798902536,Sr2CaUO6
mp-22543,0,-2.072050933,7.455858379,0.020756022,-104.1164724,-6.507279525,Sr2GdCu3(PbO4)2
mp-20400,0,-0.898648539,11.61385546,0,-63.57343227,-6.357343227,Ce(GePt)2
mp-764154,2.0203,-2.235606162,4.098471283,0.078335627,-73.03454011,-5.216752865,LiCo2OF3
mp-5898,0,-0.784168062,6.348186136,0,-31.25457913,-6.250915826,La(SiNi)2
mp-974458,0,0.263193463,16.84076196,0.992958258,-37.69934789,-9.424836973,Re3F
mp-867162,0,-0.539486785,9.070510815,0,-20.36921425,-5.092303563,LiTm2Rh
mp-752398,0,-1.933956362,6.156722828,0.070364304,-22.21254176,-5.55313544,BaCuO2
mp-770997,4.1342,-3.177075964,6.419445867,0.008519464,-45.51187447,-7.585312412,Li2HfO3
mp-761454,0,-2.048572825,6.975751425,0.055292736,-189.0089185,-7.269573788,Sn(WO3)3
mp-20831,0,-1.056684041,8.093100148,0,-152.2249223,-10.87320874,Gd4Sb3
mp-7661,0,-2.495571022,3.722486999,0,-84.29264644,-4.682924802,Li2RhF6
mp-31818,0,-2.212690933,2.868475423,0.090642298,-314.668409,-6.840617588,Fe3(PO4)4
mp-5854,3.1981,-2.394500539,4.014005537,0,-91.87789536,-5.74236846,LiGaO2
mp-685633,1.687,-3.922713402,6.961117533,0,-384.7918861,-9.385167953,Y10U4O27
mp-2567,0,-0.463646456,5.766283202,0,-69.03503802,-8.629379753,V3Si
mp-772208,0.3505,-1.768436825,4.755723834,0.084214106,-85.89712109,-5.726474739,Li3Co3SbO8
mp-28423,1.6077,-0.514110006,4.643885748,0,-37.50660257,-3.750660257,Ga2TeSe2
mp-773319,0.2201,-1.732282531,4.936721232,0.134625182,-156.3072742,-6.512803093,Mn3Cr2Te3O16
mp-35869,0,-1.485798503,6.759875784,0.094637025,-79.71680982,-9.964601228,TiNbN2
mp-773055,0,-3.259607468,3.475248079,0.014258811,-433.6226782,-7.743262111,Li3Mg3Ti6O16
mp-775736,0.6912,-1.09501526,1.800396369,0.014493429,-745.4122399,-5.324373142,CoPH21N5O7
mp-1969,0,-0.267213647,8.04646741,0,-38.3389451,-6.389824183,NbSb2
mp-545974,5.3231,-3.132099085,1.88474878,0.010145731,-89.71230561,-7.476025468,AlPO4
mp-2602,0,-1.513970426,6.584702379,0,-12.44087817,-6.220439085,NdAs
mp-631635,0,0.592648025,10.42838048,0.714346209,-24.61365427,-6.153413568,TaCoSn2
mp-684833,1.4543,-3.035865037,2.073177143,0.05045316,-308.0220407,-6.844934239,Na8Al6Si6O25
mp-781997,5.4745,-1.59680866,2.664135871,0.067184073,-325.131195,-5.805914196,SmH10S3N3O11
mp-655,0.0669,-0.405782946,2.337790003,0,-61.71706863,-2.571544526,Na3As
mp-772438,2.8122,-2.36847812,3.532123465,0.069113399,-368.3101516,-6.576966992,LiCoPO4
mp-7478,3.6842,-3.096605142,7.051530617,0,-26.33396169,-6.583490423,RbTmO2
mp-1020142,5.4224,-2.740242961,2.679629416,0.018725327,-851.3907684,-7.276844174,Na2B4O7
mp-2926,0,-0.283628933,6.331024563,0,-48.29271099,-4.829271099,Pr2MgNi2
mp-7038,0.1891,-0.392406878,7.34295416,0,-51.09234515,-4.257695429,TlPd2Se3
mp-773058,0,-2.781404359,5.536613256,0.04299175,-459.4928864,-7.17957635,Ba6Ti7(Sb3O14)3
mp-4279,2.6912,-2.528648586,4.865492846,0.00532555,-210.4362074,-6.576131481,CaGe2O5
mp-972412,0,-0.948871985,15.78295352,0.019866555,-30.52718881,-7.631797203,TmLuIr2
mp-8789,1.2135,-1.823889776,3.351706749,0,-34.29850629,-4.899786613,Ca4As2O
mp-672213,0,-0.802749222,8.499899573,0.018147902,-33.95634476,-6.791268952,Eu(AsPd)2
mp-985302,0,0.05030837,7.944869112,0.05030837,-33.93061807,-4.241327259,Ac3Pr
mp-18986,3.2253,-2.966371666,6.886031536,0,-69.08435621,-6.908435621,Ba2MgWO6
mp-27490,0,-0.401063097,7.194598603,0,-24.83311051,-3.104138814,Te2AuCl
mp-31183,0,-0.544016917,5.425759297,0,-57.20436379,-4.767030316,ErAl4Ni
mp-996,0,-1.366963456,11.21466762,0,-47.54082335,-7.923470558,OsO2
mp-1818,7.7173,-3.495165018,1.973391565,0,-28.58334279,-5.716668558,SiF4
mp-20471,0,-0.588347159,10.80319807,0,-160.2367276,-9.425689859,U4Si6Tc7
mp-552120,4.2988,-3.526552364,3.832736147,0,-45.05461482,-7.50910247,YClO
mp-976856,0,0.120584319,1.560109506,0.135413842,-5.66906913,-1.417267283,NaMg3
mp-867132,4.002,-1.460147007,3.695277077,0,-123.4344969,-4.747480651,RbZnH2Se2BrO6
mp-6140,0,-0.43126302,7.014098837,0,-41.5102993,-6.918383217,PrNi2B2C
mp-4250,0,-0.951273062,8.205427059,0,-30.59074823,-6.118149646,Tb(SiPd)2
mp-22309,0,-0.273201358,7.222027907,0.018039469,-59.63438895,-4.969532413,CoSe2
mp-43134,2.7863,-3.389395752,4.926605387,0.037461033,-352.7046327,-8.01601438,NaNdTiNbO6F
mp-19460,1.8662,-3.190185837,6.445958518,0,-287.6391101,-7.569450267,Ba5Nd8Mn4O21
mp-560409,2.1283,-1.265432765,1.969689697,0.077572718,-823.6206357,-6.056034086,P3S3N6F5
mp-757636,0.751,-2.47232376,7.223615405,0,-300.1676217,-7.504190543,NbTlO3
mp-541996,1.7631,-3.225838416,5.787009981,0.00614666,-243.3898532,-7.605932912,Pr2SiTeO4
mp-11615,0,-0.518971725,8.988416577,0.040327447,-59.45126673,-6.605696303,TmMnGe
mp-557754,4.0937,-3.129995674,2.730806919,0.000453584,-160.5039475,-8.025197373,ZrP2O7
mp-568405,0,-1.981851907,2.408217216,0,-75.38716167,-4.188175648,K2NbCl6
mp-582259,2.1867,-0.905761415,2.29723052,0.007171249,-130.2280792,-5.426169968,Li7VN4
mp-761579,0,-1.194174187,4.927936838,0.056363153,-139.1524513,-5.798018806,FeCo3O8
mp-753508,0.7015,-0.910451139,3.475017733,0.055022138,-48.81214749,-4.067678958,LiCuS
mp-777591,1.2004,-2.856665301,3.859172404,0.031894121,-211.9072915,-7.568117552,Li4Ti5Fe3O16
mp-768229,0.9149,-1.062828605,4.170545339,0.073975399,-48.96883495,-4.080736246,Li2BiS3
mp-562,0,-0.481200572,10.37256926,0,-63.02049222,-5.251707685,Sb2Pt
mp-981212,0,-0.040582573,4.733509251,0.007258808,-7.80859591,-2.602865303,TmMg2
mp-759526,1.7255,-1.624668961,8.907080104,0.032925433,-371.7880432,-5.719816049,Bi2O3
mp-7298,0,-0.320482059,4.525750506,0,-22.52855618,-4.505711236,Li(CuP)2
mp-30948,3.5236,-1.498531003,5.442566809,0.010982061,-266.8131287,-5.131021706,Tb(IO3)3
mp-570634,0,-0.10153609,5.980912482,0.001491685,-200.7610721,-2.509513401,Cd3As2
mp-631354,0,0.686937276,15.27885542,0.775391237,-30.86575542,-10.28858514,ReOsRu
mp-1008626,0,-0.30861187,6.32027705,0.015226157,-16.28987121,-5.42995707,VTe2