id,band_gap,formation_energy_per_atom,density,e_above_hull,energy,energy_per_atom,pretty_formula
mp-704220,2.3196,-2.011477522261904,2.80253418144264,0.4128265166666667,-241.20665946,-6.700184985,FePO4
mp-6105,0.9477000000000002,-3.1032076004791675,7.9879195070840225,0.0,-530.56156337,-8.842692722833334,Pr2Ta3(SeO4)2
mp-561550,0.8684000000000001,-1.2122915188690473,6.305465895168508,0.015882575267856858,-145.6000594,-5.200002121428572,Ag3BO3
mp-758100,0.3803999999999999,-2.1480323511054418,3.3276073480029,0.07983405428571544,-173.76121487,-6.205757673928572,LiCuPO4
mp-25169,,,,,,,
mp-559418,,,,,,,
mp-757800,1.5934000000000004,-1.6532165193287054,3.5715465151316037,0.0822973849074069,-341.02075379,-6.3151991442592585,LiCuCO3
mp-776789,,,,,,,
mp-851047,,,,,,,
mp-19166,2.5035000000000003,-2.2491252340909087,6.63299608671366,0.0,-259.87817463,-5.9063221506818175,Sr3NiPtO6
mp-676473,2.7205,-1.1448621935954657,2.1795299517628792,0.022631839583325156,-140.58307701,-3.2693738839534885,Te6H6S(Cl13O2)2
mp-781618,0.2056,-2.5870673578156134,4.12984675458538,0.063217604270835,-236.77371127,-6.577047535277778,Mn12O7F17
mp-779742,3.7673,-1.493828775370632,3.0080061491764973,0.0,-309.33387368,-4.989256027096775,Cs2ZnH12(SeO7)2
mp-868265,,,,,,,
mp-569806,0.8224000000000002,-0.869293958417468,3.875246226879333,0.0,-365.05321811,-4.680169462948718,K5Na(Ti2Se9)3
mp-768663,3.2654,-2.2991217160576927,3.998105330401942,0.00021636544871395105,-164.16297292,-6.313960496923077,Na3SiBiCO7
mp-25795,,,,,,,
mp-566000,,,,,,,
mp-35236,1.5034,-1.96528745,5.964225396649554,0.0,-161.64670266,-5.773096523571428,Ga2NiO4
mp-556771,5.0399,-3.615796336022728,4.90706412698219,0.003274184090910737,-359.50594283,-8.170589609772726,Nd2Si2O7
mp-753942,3.0458,-1.879497686,3.3817776663803865,0.09796166816666574,-135.03170406,-4.501056802,BaY3Br11
mp-759821,3.4681,-2.364651849345001,4.6916390527512215,0.05727340699999672,-206.51039542,-5.1627598855,Sb3O2F5
mp-565650,,,,,,,
mp-765183,,,,,,,
mp-780421,4.270499999999998,-3.6490035117500006,5.051188149577585,0.08236717599999999,-237.98158140000004,-7.93271938,LaAlO3
mp-690508,2.6399,-1.9912261505807125,6.6258484847155055,0.7031463986666697,-243.43672263,-8.114557420999999,Ta2Mn4O9
mp-8411,0.7694000000000001,-0.38726267458333297,4.032090527794462,0.0,-23.32906765,-2.91613345625,Na2AgAs
mp-628782,2.7968,-2.066741022774286,6.573869631873405,0.0,-272.73482868,-6.493686397142858,V3Pb5ClO12
mp-27700,2.3963000000000005,-1.527404607386364,4.9720651126996,0.0,-115.63925889,-5.256329949545455,Sb4Br2O5
mp-559608,4.7165,-3.1949778411696426,2.871305691133129,0.0,-830.79506863,-7.417813112767857,K3NdSi7O17
mp-778625,,,,,,,
mp-24798,4.9539,-0.5719640671142859,2.05600708937992,0.005687570357141958,-139.23997471,-4.972856239642859,Rb3B12H12Cl
mp-6782,2.8017000000000003,-2.5058427310833338,4.888719123453776,0.012274032499997034,-66.04126739,-6.604126739,Li2ZrTeO6
mp-771418,,,,,,,
mp-5962,0.9552999999999998,-0.6390597727777779,2.882363009037366,0.0,-18.9696126,-3.1616021,NaMgAs
mp-868530,,,,,,,
mp-9607,2.0701,-3.151931620833334,6.2138262915159785,0.0,-216.62175575,-7.7364912767857135,Li2UO4
mp-25571,0.8291000000000004,-1.8905286808333333,5.053250088512123,0.24642872583332756,-21.47755212,-7.15918404,MoO2
mp-647180,,,,,,,
mp-690435,0.8212000000000002,-1.241614814367466,3.973624655134168,0.8261274146031905,-249.69567294,-5.94513507,Li7Mn11O24
mp-19363,2.2196,-1.6060778166666665,6.756782458371309,0.0,-68.47478587,-5.706232155833334,HgMoO4
mp-763786,,,,,,,
mp-3813,0.6162000000000001,-2.2636611217857148,4.113162537515567,0.003701053750001293,-42.12322961,-6.017604230000001,Ba2ZrS4
mp-567904,,,,,,,
mp-560639,2.6483,-1.7947326950240912,3.243861296668703,0.0012608761363628318,-163.11251808,-3.707102683636364,SbS(BrF2)3
mp-752711,3.2517,-1.6817113978703704,4.4030612256789725,0.057291953333333374,-118.30956123,-3.2863767008333333,BaSr2I6
mp-745104,,,,,,,
mp-561189,4.0163,-3.0150592239423086,2.8764741608991895,0.01299607205127895,-275.3547265,-7.0603776025641025,Rb6Si10O23
mp-773453,2.1294,-2.1452360423601182,2.6019070135845515,0.13071215177082784,-156.11928281,-6.5049701170833325,K2FePCO7
mp-690004,0.823,-2.346135072275132,2.688992114279461,0.11389748680555024,-121.97480102,-6.776377834444443,LiCo(PO3)4
mp-27891,0.8270999999999997,-1.3784983471249994,8.737741267582265,0.0,-53.25929059999999,-5.32592906,Bi2SO2
mp-765462,,,,,,,
mp-19178,1.3603000000000005,-1.081140853958333,7.308028445627924,0.0,-41.76548241,-5.22068530125,CoAgO2
mp-541367,4.4019,-2.7262806481084656,3.4391998218466657,0.002103015902779504,-497.07945908,-6.903881376111111,SrCd(PO3)4
mp-722267,3.2662,-1.5246619163886763,2.8172476317809023,0.005041524264699504,-171.48340116,-5.0436294458823525,Na5H7(Se2O9)2
mp-32455,,,,,,,
mp-764643,1.515,-2.377109592666666,3.2367488423166466,0.03729452832778701,-317.73601864,-7.060800414222222,Li5Fe8(BO3)8
mp-677573,2.9901000000000004,-2.543453287083333,3.844669338389306,0.0,-497.19006342,-6.21487579275,NaCa2Mg2(AsO4)3
mp-16847,0.9684,-0.401082672190476,2.4336944384206376,0.0,-119.19015786,-3.310837718333333,K3Na2SnP3
mp-767307,,,,,,,
mp-777947,,,,,,,
mp-773214,,,,,,,
mp-559808,3.5723,-2.478608307483066,4.455223001165411,0.0,-179.64408525,-5.6138776640625,Cs3PO4
mp-554255,2.1538,-1.6669645797802204,3.482316031645832,0.0,-264.15177074,-5.079841745,Ba3(PS4)2
mp-28179,2.9019999999999997,-1.9187214505700003,2.938232196332497,0.0,-144.171511,-4.50535971875,NaTaCl6
mp-743636,4.2669999999999995,-2.287287439820516,3.2910450463846965,0.0,-456.96876449,-6.346788395694443,NaNiP2HO7
mp-772750,5.4592,-2.5952331577426757,2.4565494306450018,0.04960605653846084,-170.84281898,-6.570877653076924,Li3MgPCO7
mp-714961,,,,,,,
mp-504474,4.7376000000000005,-2.95824611778,6.906112734513184,0.08300993249999601,-56.39683634,-7.0496045425,TbHO2
mp-18902,4.8942,-2.332734730476189,4.295621932674702,0.015947815000008525,-274.42066299,-6.533825309285714,Li2WO4
mp-770099,,,,,,,
mp-581584,2.2215000000000003,-3.2099184147778512,4.617718629176347,0.0,-796.98607365,-7.66332763125,Cs2U(SiO4)2
mp-770190,1.9478,-2.5304445563718825,2.896357456149977,0.25757931841269244,-285.54737488,-6.798747020952381,Li4V2Si(PO6)2
mp-23116,0.3094000000000001,-0.8375895671484379,8.627813838646345,0.0,-38.15511653,-4.76938956625,CuBiSeO
mp-569028,1.3126,-1.2172544772222222,3.833609090805996,0.0,-26.73021266,-2.970023628888889,Rb2SnBr6
mp-997002,1.4151,-1.156894902625,5.400401457344495,0.0,-35.00638207,-4.37579775875,KAuO2
mp-8070,5.8721999999999985,-2.977662707916666,2.633216388023928,0.0,-107.56922553,-6.723076595625,Li2BeSiO4
mp-774335,3.1080000000000005,-2.334622075422078,4.325570814111846,0.04776920329545575,-593.69330235,-6.746514799431817,Sn2P2O7
mp-11703,1.6174,-1.0704094760625005,2.996772173574461,0.0,-32.93403234,-4.1167540425,KSbS2
mp-673682,2.1164,-2.4956790998809533,7.042666421518617,0.006935921071434592,-84.34008128,-6.02429152,Tb2YbS4
mp-777305,,,,,,,
mp-8754,2.2840000000000003,-0.9984182822222222,3.508012430255091,0.0,-37.43880654,-3.119900545,NaLiTe
mp-650442,0.5350999999999999,-0.2616356976388889,8.302304847187981,0.0,-71.09561545,-2.9623173104166667,Tl3AgTe2
mp-7768,1.3857999999999997,-2.0876232894207503,9.29218945221255,0.0,-44.666688799999996,-8.93333776,Th2SeN2
mp-555280,2.0347,-1.1313915557291672,3.9918128219657767,0.012111361190476178,-41.9714015,-3.4976167916666667,ZnS
mp-24989,,,,,,,
mp-779183,,,,,,,
mp-556377,2.2898000000000005,-2.997694596875,7.684345379442812,0.003255965490183144,-688.45818983,-6.7495900963725495,Ba17Dy16Zn8Pt4O57
mp-541457,,,,,,,
mp-626264,3.8287,-1.4683946753859265,2.11848357327826,0.025666955740780928,-271.71613667,-5.031780308703704,Ba(H8O5)2
mp-560131,5.6874,-3.186225625833333,1.8510935786479523,0.09177204333333222,-187.78718776,-7.824466156666666,SiO2
mp-770856,0.6506000000000003,-2.277309212837313,4.072056497880428,0.017979338906249254,-433.11908059,-6.76748563421875,Li2MnCrO4
mp-721013,3.5802,-2.0013968990589914,2.812658987871881,0.00875226286765507,-416.05844846,-6.118506595,ZnGaP2H4NO8
mp-541636,5.4828,-2.9306254816547614,3.5683094458939464,0.01225949319444286,-524.12084595,-7.27945619375,KEr(PO3)4
mp-706325,0.8886000000000003,-2.669049643311517,6.3886233152419525,0.20582907162497846,-140.48778024,-7.024389012,CaDyMnSnO6
mp-669564,1.5022000000000002,-1.008503087940612,6.288026505837091,0.0056789077777734676,-505.64127848,-7.0227955344444455,CsRe6S8Br3
mp-763077,,,,,,,
mp-616702,,,,,,,
mp-754711,0.9396000000000004,-2.502061255795456,7.371597872427388,0.04965804073426483,-169.74024255,-7.715465570454546,Nb2Pb2O7
mp-868146,,,,,,,
mp-3982,0.8642,-1.387628785125,3.083444859628808,0.0,-38.50290339,-4.81286292375,KCuO2
mp-771653,,,,,,,
mp-762805,,,,,,,
mp-738654,1.9706,-1.3382023329713506,2.545684829193546,0.0904995815315246,-929.22254627,-6.27853071804054,UH16C4(NO3)4
mp-726,3.2789,-1.1643377124479166,3.7317788609905613,0.0,-123.84204442,-5.160085184166666,SeO2
mp-866650,2.3360000000000003,-1.3436171322523074,4.934478017051491,0.0,-423.89680998,-8.151861730384615,La2Si4CN6
mp-723044,4.4143,-0.9749685021133336,1.7732428893509615,0.0,-362.94924213,-4.320824311071429,ZnH12N3Cl5
mp-758413,0.209,-1.4696672454999995,3.954338458561037,0.014555870499999738,-154.96252764,-3.8740631910000003,Na2CdO2
mp-557505,2.3389,-2.9268291516383935,3.649345714510981,0.0,-977.38602499,-7.635828320234375,KUP3O11
mp-8630,1.423,-0.7043810935416666,10.105023577871373,0.0,-74.21425261,-6.184521050833332,SbIrS
mp-767033,,,,,,,
mp-767097,,,,,,,
mp-541846,5.5685,-2.3684989263873626,2.3214559610255647,0.005907301467028781,-362.61847483,-6.973432208269231,P4O9
mp-571305,0.24350000000000005,-1.4364332649560003,3.1469928851870588,0.03517601149999994,-64.09383999,-3.2046919995000005,RbCuCl3
mp-569484,0.21960000000000024,-2.2019731495095067,3.0401275593382264,0.0,-121.17719136,-4.327756834285714,Cs3Ti2Cl9
mp-754019,0.6540999999999997,-2.582429325499999,5.011297585924583,0.0,-65.2492923,-6.52492923,Na4NpO5
mp-780526,4.0507,-2.184594987360292,2.494349551921832,0.06810514625000419,-319.73303937,-6.6611049868749985,Li2MnCSO7
mp-851257,1.5634,-3.0593892665250007,3.2774292969023207,0.0014909787499997054,-202.49697044,-6.32803032625,V2OF5
mp-558706,2.5213,-1.2336217095138886,3.1469226494244085,0.0,-154.12939421,-4.281372061388889,RbGa3S5
mp-557599,4.0938,-0.923153817546429,3.1186843975095297,0.0,-245.75671135,-4.388512702678572,Rb2Bi(ClO4)5
mp-722686,5.5053,-1.5721799669144003,1.801884575316849,0.022330180700018687,-577.61326629,-5.776132662899999,SiH10C2N4(OF3)2
mp-25507,,,,,,,
mp-8065,2.7544,-3.3590467867738103,3.4639630544736315,0.0,-175.32474855,-8.34879755,K2Ti6O13
mp-850669,2.7163000000000004,-3.499546579583333,8.232337020450334,0.025373083846153218,-502.978005,-9.672653942307694,YTa3O9
mp-767023,,,,,,,
mp-13361,0.6340999999999999,-2.158801409010989,4.601962858791501,0.0,-78.76792602,-6.0590712323076925,Cd2Cu(PO4)2
mp-774140,,,,,,,
mp-697236,4.237,-1.6644471475237117,3.315234011677622,0.0024008243181734557,-117.70220726,-5.35010033,MgH2(SeO3)2
mp-776816,3.6654,-2.606824787410416,3.103042845786221,0.3787190259375031,-150.04596686,-4.688936464375,Li2FeF5
mp-29978,6.934900000000002,-4.138958184885796,3.8615773804944538,0.00010672869566263898,-267.72679664,-5.820147753043478,Sr5Al2F16
mp-771933,,,,,,,
mp-556085,2.7218,-1.5957751773958335,3.4157873576563595,0.0,-169.54371666,-5.298241145625,Rb2LiTaS4
mp-562728,,,,,,,
mp-766,0.4949000000000003,-0.3975358983333332,8.051426666908442,0.0,-39.56802585,-6.594670975,As2Ru
mp-9010,1.986,-0.981376366875,5.347005368824872,0.0,-21.34306916,-3.5571781933333333,RbAuS
mp-566314,,,,,,,
mp-23025,4.1443,-3.603235334836668,5.316550023292303,0.0,-42.49045911,-7.0817431850000006,LaClO
mp-27301,0.8377,-1.382354416684286,4.251460637902304,0.0,-84.29403297,-3.0105011775,Rb3Au3Cl8
mp-570594,1.1601000000000004,-1.294858730533854,6.474283529053977,0.002515000520832089,-124.50846838,-5.187852849166666,Sm3CuSnSe7
mp-5881,0.36790000000000056,-0.5879843456249993,6.929478412195357,0.0,-131.79408227,-5.491420094583333,CoSbS
mp-5001,3.3711,-0.9700765625988884,1.731905180299666,0.0,-136.52625181,-5.6885938254166675,Li3BN2
mp-767800,,,,,,,
mp-22858,2.1382,-0.6583679675,6.5468352081796475,0.02316648499999996,-10.40479584,-2.60119896,TlI
mp-21872,4.8919000000000015,-3.92614966475,8.335834179537981,0.012616476499999862,-166.67837758,-8.333918878999999,PrLuO3
mp-554651,0.7255,-1.9687134189288888,3.614066336254477,0.016650220555552764,-212.87921578,-5.913311549444446,K3Pu(H3O4)2
mp-560512,0.5831,-3.0181474486574067,7.9623198377353575,0.5191791001388921,-287.4339027,-7.9842750749999984,Sm2EuBeO5
mp-555026,7.4237,-3.886979874392501,2.8317243889918813,0.005066835250005397,-235.55145729,-5.88878643225,AlF3
mp-565232,,,,,,,
mp-645743,2.5943000000000005,-1.6500612305729163,5.265558876284119,0.00913159047454304,-191.22001338,-5.975625418125,VAgTeO5
mp-18373,3.0413,-1.3824714366796875,4.4369355759163,0.0,-162.15752959,-5.0674227996875,ZnSe2O5
mp-569348,3.5506,-0.9122138097916668,4.303346765289751,0.0,-139.28585487,-2.901788643125,TlGaBr4
mp-568018,0.2906,-0.2809868741666672,4.292221468027932,0.0,-20.16298773,-3.360497955,RbSb2
mp-778532,2.3693,-2.960578858537142,2.5247401330551,0.04423382047619207,-215.76237175,-5.137199327380952,Li2FeF4
mp-720391,7.4712,-2.046989862245333,1.860992378191807,0.0,-214.97163453,-5.374290863250001,BH4NF4
mp-782667,2.764,-2.339351113306063,2.9771378253237315,0.3602668656250003,-209.67825385,-6.5524454328125,Li2MnSiO4
mp-30293,1.7486000000000002,-1.3022245961011905,4.446258069064436,0.0,-62.19138444,-4.442241745714286,Sr2GeSe4
mp-622115,,,,,,,
mp-771208,2.7217,-2.6564032493000003,5.23694726011788,0.04505546154666984,-307.22558293,-6.144511658599999,Ba5(Ga3O7)2
mp-638206,3.7531,-0.8130398510369522,1.9612969520394183,0.022412977224092856,-312.99628303,-5.216604717166666,P3CN4Cl7
mp-540728,0.7586000000000002,-1.7392354779833334,4.7118257318858126,0.012101825000002007,-131.17150395,-4.372383465,K2Zn6O7
mp-559917,3.7195,-1.2880698121747618,1.783157333735904,0.01629164238889924,-654.18548116,-4.542954730277779,P2NCl5O
mp-558427,5.2539,-2.3776799370679007,2.586613593293232,0.0,-310.98039843,-5.758896267222222,Na6Mg(SO4)4
mp-770057,,,,,,,
mp-579296,,,,,,,
mp-531064,2.3713,-0.8858038440227266,4.033632920320657,0.0,-438.79705945,-4.986330221022726,KMo3Br7
mp-770359,2.6704000000000003,-2.5943965995833325,6.4159271888889124,0.04354288125000316,-196.26130725,-8.17755446875,TaAsO4
mp-580886,0.7363999999999997,-1.4718633607933331,5.8161781748427455,0.02985386666666745,-44.87954393,-7.479923988333333,ZrIN
mp-1020025,6.141400000000001,-2.7845268752546293,2.8276555506690606,0.044040921412022094,-1091.77862399,-7.581795999930555,LiB3O5
mp-849515,3.1179,-2.1967478751218943,2.588568861640415,0.44761354321429625,-377.30369628,-6.737566005,LiMnPO4
mp-640531,,,,,,,
mp-997084,0.6881999999999999,-0.9710811633333334,5.037523623923646,0.04847825750000023,-16.18871872,-4.04717968,RbAgO2
mp-565592,,,,,,,
mp-780903,,,,,,,
mp-16903,4.7617,-3.3878736118023807,4.41450300827962,0.0,-146.54538716,-5.233763827142857,SrSbF5
mp-754204,3.1305,-3.1809825385416683,5.992705820607908,0.040506985624993774,-74.40061237,-9.30007654625,LiGdO2
mp-23931,6.9829,-2.0117070655325837,1.934708186883261,0.0012049662959228158,-162.48251161,-5.802946843214285,LiPH2O3
mp-763753,,,,,,,
mp-775922,1.5302999999999998,-2.851267176899724,4.541818604351934,0.08224647854166632,-207.76146593,-8.656727747083334,SrNb3NO7
mp-705894,0.3645000000000001,-1.6292929397345548,3.494091424323659,1.0493757144594484,-477.15632292,-6.448058417837838,RbSi2Mo3P6O25
mp-764680,,,,,,,
mp-705069,0.0006999999999997009,-1.7947231858361798,3.2417233852379117,0.8496382325000109,-532.18547052,-6.335541315714285,LiMnPO4
mp-647218,0.5972,-2.3168843862261905,5.158427632737139,0.0,-468.68484817,-7.811414136166666,Re2P2O11
mp-763259,2.8402,-2.5593930499221833,3.2371826306424247,0.0,-201.01314816,-7.731274929230769,Mn3(PO4)2
mp-777919,1.7335000000000005,-1.4731424555357149,2.674627070101607,0.12693483500000013,-128.87992162,-4.602854343571429,Na3CoO3
mp-554420,4.7279,-3.776692969114584,4.611200164455023,0.02498968875000429,-279.18964426,-8.724676383125,Y2SiO5
mp-769316,3.9757,-3.2765161902223463,3.2318294676014356,0.08027920472222139,-316.2600688,-5.856667940740741,Li5Nb3OF18
mp-772876,3.9536,-1.7219142650925925,3.856917605429603,0.017089086111111484,-119.75686445,-3.326579568055555,BaSr2I6
mp-698685,,,,,,,
mp-777196,,,,,,,
mp-567583,1.9983,-1.5256371934363795,2.8381697211797823,0.0,-49.50521073,-3.094075670625,CsSbCl6
mp-19575,,,,,,,
mp-780893,0.9105,-2.042440253583333,2.5587853595077568,0.1271713838333346,-166.06062491,-5.535354163666667,Na6V2O7
mp-15155,2.0519,-3.365674938774509,5.1122480450150585,0.051844180323529436,-135.41809813,-7.965770478235294,Na2Sm2Ti3O10
mp-2981,2.9347000000000003,-2.4099422821944447,4.167330183046287,0.008758466155554423,-538.73048668,-5.985894296444443,CaTeO3
mp-20011,1.4939,-2.01677248775,4.5711658235192125,0.05510298300000116,-113.04832574,-5.652416286999999,NaSbO3
mp-556369,0.9331,-1.086233508484375,6.920166002030786,0.0,-82.69140039,-4.1345700195,CdHg2SeO6
mp-776343,1.4349,-0.3667549465866655,6.075907451506537,0.1840184321033309,-359.56002822,-9.987778561666666,WN2
mp-8426,2.091,-1.0965854794479164,2.236225805461449,0.0,-9.00646581,-3.00215527,K2Se
mp-997086,0.5904000000000003,-1.8371043068749997,5.885536037222504,0.0,-40.72351695,-5.09043961875,SrAgO2
mp-27843,2.3392,-2.027619705961538,5.446922693842422,0.002127736987181273,-306.78334411,-5.899679694423076,Zn2Ge3O8
mp-680154,2.7546,-2.3493279284166677,4.117242382070872,0.07823754711111253,-582.95738412,-6.477304267999999,Rb2Ti(GeO3)3
mp-23656,4.1073,-2.6948736953591306,2.7440057378624085,0.0,-289.57453068,-6.2950984930434775,Na4Ga3Si3ClO12
mp-1820,2.2234,-2.578719929895834,7.498294992924155,0.0,-10.170025,-5.0850125,YbS
mp-770224,,,,,,,
mp-6299,5.5458,-2.4941004144495613,2.697652823056727,0.0,-456.67781131,-6.00891856986842,K2Mg2(SO4)3
mp-625663,4.4861,-3.002471519655,3.200386096667335,0.005433493124987976,-120.29369113,-7.518355695625,ScHO2
mp-18898,0.37319999999999975,-1.147976441666667,4.40355549751038,0.0030430772435900977,-130.08357189,-5.003214303461538,Sr(NiO2)4
mp-772304,,,,,,,
mp-3405,4.4910000000000005,-3.370387635387932,3.118343862809993,0.0,-424.86222306,-7.325210742413794,NaAl11O17
mp-4006,5.919600000000001,-3.5229773597619043,6.0574101481867615,0.0,-96.20247339,-8.0168727825,ErPO4
mp-555727,5.4909,-2.933489743988096,3.717968587584123,0.0,-524.07537854,-7.278824701944443,RbTb(PO3)4
mp-697921,3.5747000000000004,-2.1669048298580296,2.3996304918877844,0.00013143318182251562,-119.78526835,-5.444784925,Mg5H8O9
mp-559463,4.2182,-1.6636932228709334,2.3209107823410866,0.0,-260.32352649,-5.2064705298,RbMgAs(H6O5)2
mp-761316,,,,,,,
mp-555314,4.4268,-3.4616933017976184,3.8079621073384873,0.02110784278571476,-263.23265374,-7.520932964,Sr7Zr(Si2O7)3
mp-18262,1.7799999999999998,-1.6527121827083335,6.100108625175046,0.0,-167.77413113,-5.2429415978125,HoAgS2
mp-9322,0.835,-0.7322324057465279,4.407972959641255,0.0,-68.03061429,-3.779478571666667,Rb2Sn2Se5
mp-568790,0.5969000000000002,-1.1519486540384618,3.6795831642286783,0.0,-448.8592875,-4.3159546875,Ca14GaAs11
mp-774455,5.0024,-2.3759406446582987,2.4030837966930862,0.0075567644047653815,-511.22013313,-6.085953965833332,Na4P3H3O11
mp-780882,3.0580000000000003,-2.1814999514343256,2.531984558827831,0.08616462674999514,-128.65173043,-6.432586521499998,LiMnPH2O5
mp-985608,2.8493,-2.6809087323214285,6.067977465618485,0.02806989267857141,-101.42264978,-7.244474984285715,Nd2O5
mp-32415,,,,,,,
mp-33775,1.4348999999999998,-1.812248144791667,6.362956390098582,0.016259463344496794,-80.85133043,-5.7750950307142865,La5AgSe8
mp-19014,3.3388,-2.624980779083333,6.596206644938854,0.0,-129.23218472,-6.461609235999999,Sr2CdWO6
mp-560863,3.7518,-2.163030698343751,5.413205970988164,0.0,-263.02258588,-6.575564647,ThSe2O7
mp-5967,1.0560999999999998,-0.6613172733333338,7.4161166432836785,0.0,-21.11632204,-7.038774013333334,TiCoSb
mp-780919,,,,,,,