id,band_gap,formation_energy_per_atom,density,e_above_hull,energy,energy_per_atom,pretty_formula
mp-10778,1.9029,-1.7216449342968745,4.706174641691373,0.0,-19.63983591,-4.9099589775,RbPrSe2
mp-777457,3.5786,-2.951162276691904,2.9477928905303887,0.05365040232143059,-287.15583375,-5.127782745535714,Li2FeF4
mp-675127,,,,,,,
mp-582185,0.8099999999999996,-0.4337195285775865,4.626181507516262,0.0,-182.85391045,-3.2652484008928573,Cs12Nb(In2As3)3
mp-8974,3.241,-3.572451291953125,7.1454522131416605,0.0010645481249991207,-119.55426974,-7.47214185875,Ba3Dy4O9
mp-14345,4.3393,-2.848008893262988,4.104586791748549,0.0,-150.10551853,-6.8229781150000015,BaZnP2O7
mp-572510,1.8096,-1.1948249814305558,3.1275029522345537,0.0,-349.18410758,-3.637334453958333,K3AgO2
mp-764421,,,,,,,
mp-541152,4.9066,-2.655582570925294,2.5162128370510537,0.013227682058824186,-229.30554508,-6.744280737647059,Al2Si2H4O9
mp-555410,2.0646000000000004,-1.1390885915625,4.0103802156905575,0.004414325357143145,-28.04251062,-3.5053138275,ZnS
mp-778628,,,,,,,
mp-28562,1.6265,-0.6183356052343747,3.660312476079152,0.0,-120.83366007,-3.7760518771875,RbAsSe2
mp-18921,0.8321999999999998,-1.6377704081249993,4.880358165524076,0.0,-21.58895337,-5.3972383425,NaCoO2
mp-868467,,,,,,,
mp-767651,,,,,,,
mp-7773,0.4598,-0.4947746512499998,5.670564680795536,0.0,-25.07186843,-3.13398355375,Na2AsAu
mp-570597,0.3776999999999999,-1.2947571900000008,5.1863396017720085,0.0,-24.01132992,-4.802265984,La2GeI2
mp-985591,2.1315,-1.327305651861264,1.8987671934235633,0.054077579423077005,-53.12367233,-4.086436333076923,Li6PS5Br
mp-32312,,,,,,,
mp-6000,1.9433,-3.0738165270098037,6.059928053908881,0.058565785073524175,-133.93376649,-7.878456852352942,La2Ti3(AgO5)2
mp-867192,0.5282,-0.9665858458333334,6.572764263252237,0.0061494033125000245,-15.17769549,-3.7944238725,Sr2AsAu
mp-17133,1.5666999999999995,-1.0446482555022218,5.257478509118201,0.0,-217.83914879999998,-6.051087466666668,Ba3(AlN2)2
mp-868648,,,,,,,
mp-778704,,,,,,,
mp-775073,0.4679000000000002,-1.9040183984523804,4.647401996281356,0.2603350448412671,-176.99247756,-6.321159912857143,Li4Cr3Fe3(SnO8)2
mp-556122,5.5242,-3.003235518849206,3.0758784080196184,0.0,-522.3112079,-7.2543223319444445,BaCa(PO3)4
mp-695074,4.0625,-3.1565226318928565,2.550207102584938,0.01365094004463696,-396.07243019,-7.072721967678571,KNa3Al4(SiO4)4
mp-554199,2.1505,-1.5269074283333337,4.43462931969171,0.0,-91.42599557,-5.0792219761111115,RbSnIO6
mp-557450,1.4682999999999995,-1.5100120347916668,6.799589874037548,0.005052398333333485,-121.96968934,-5.082070389166667,Na2PtO3
mp-561691,,,,,,,
mp-707710,2.267,-1.787622470672264,2.375476021373415,0.017483340330204378,-624.81214648,-5.894454212075472,SrMgUH24C3O23
mp-6376,1.0730000000000004,-1.151892653187501,3.1637319577086367,0.0,-82.9965383,-5.18728364375,KV(CuS2)2
mp-600005,5.4398,-3.2624820395833325,1.6128514232173363,0.015515629583333634,-189.61734169,-7.900722570416666,SiO2
mp-30041,1.3481999999999998,-1.0967995859375002,5.058445559122402,0.0,-16.20012853,-4.0500321325,RbBiS2
mp-8341,2.3243,-2.0594126457812507,4.2291679600040055,0.03298522874999321,-382.09890184,-5.97029534125,NaGeSbO5
mp-775499,,,,,,,
mp-560826,5.4244,-3.266065861944444,1.7956563073764031,0.01193180722222209,-284.55503014,-7.9043063927777775,SiO2
mp-18880,2.7181,-3.1843220991666654,6.539639747595439,0.03584298583333378,-96.11275088,-8.009395906666667,ErVO4
mp-777221,,,,,,,
mp-556783,4.5023,-2.1792459779398157,2.2038429019073997,4.6390925925621225e-05,-344.34349157,-6.376731325370371,NaLiCO3
mp-850449,,,,,,,
mp-540234,,,,,,,
mp-778582,,,,,,,
mp-20210,1.3754,-0.8276074788333332,8.115199640769019,0.0029161226333336288,-44.01403199,-4.401403199,Ag2PbO2
mp-17552,4.7103,-3.4385058684166667,2.8221436308284407,0.02031068000000058,-224.11427483,-7.470475827666666,CaSiO3
mp-697652,5.4201,-2.5086283443983035,3.3995886866856337,0.007019488437492782,-448.36698347,-7.00573411671875,HfP2H4O9
mp-543104,,,,,,,
mp-774393,2.7097,-2.4733990792873746,3.2309254313708813,0.011194689603175156,-256.64568634,-7.129046842777778,Li2MnFe(BO3)2
mp-863403,0.2513000000000005,-2.6034944456872298,3.088084379002938,0.166283138566663,-162.3897936,-7.381354254545454,LiNbP2O7
mp-23164,0.9706,-0.35974854890625,7.176336075615383,0.027916580500000343,-80.23723975,-4.0118619875,Bi2Se3
mp-775116,1.0900000000000003,-2.538318601454204,3.5310559345950874,0.03216927666666969,-180.90443611,-7.537684837916667,MnCr3(PO4)4
mp-761997,,,,,,,
mp-776061,1.0392,-2.8456363138754357,4.024650094773634,0.04168112883927755,-221.57449326,-7.9133747592857135,Li4Ti3Mn3Nb2O16
mp-696272,1.5525,-0.962645499071428,5.2604297061741345,0.0,-140.86807295,-5.031002605357143,HgHNO4
mp-569561,3.1084,-1.0845390913580002,2.5057116922786244,0.0,-108.65120235,-2.71628005875,TeCl4
mp-850986,0.2406999999999999,-2.3255838497978574,3.683319479187362,0.10247958410715174,-144.8301705,-5.172506089285714,Li6Co6O5F11
mp-29374,0.2906000000000004,-0.2244915288333337,4.808538032227434,0.0,-88.00574552,-3.6669060633333337,KGaSb4
mp-765516,,,,,,,
mp-9705,2.0441,-1.136512159591428,4.48226006200843,0.0,-92.65228161,-6.618020115,Ba4Na(BN2)3
mp-776869,,,,,,,
mp-566070,,,,,,,
mp-19228,1.993,-2.308539499295536,2.66476468288135,0.08163640296992458,-268.22663001,-7.058595526578947,K2MnV4O12
mp-647350,3.2284,-2.2913578084459454,3.8819809989965024,0.03824679450448976,-502.32034635,-6.788112788513514,Rb5HfFe(MoO4)6
mp-29172,4.1353,-2.0962123419207503,2.9862976149390112,0.0,-78.63669489,-3.9318347444999997,SeF4
mp-770601,,,,,,,
mp-754494,2.9074,-2.064529437857143,4.140181266454147,0.044672506785714994,-58.982633400000005,-4.213045242857143,BaLaBr5
mp-557426,1.3023,-3.266832603795024,2.972952887837669,0.14790533357142888,-78.9017959,-5.6358425642857135,CaMnF5
mp-771402,,,,,,,
mp-27260,5.388,-2.2034681922451718,2.3703270455018153,0.0,-91.50876505,-3.812865210416666,CsAlCl4
mp-756793,2.8733,-2.8213642407017554,4.734392188244612,0.02400225552633195,-150.03643267,-7.896654351052632,Li2Nb4ZnO12
mp-778781,,,,,,,
mp-23737,2.458,-0.3423897784386664,1.6934061214138088,0.0,-14.13845374,-2.827690748,KMgH3
mp-24182,3.6853,-1.4942406377621775,2.7800877783792664,0.0,-309.69993595,-4.995160257258066,Rb2ZnH12(SeO7)2
mp-770026,,,,,,,
mp-555618,1.694,-2.790873542695646,2.9778897384419665,0.1491635322916629,-158.14016536,-4.9418801675,Na2MnF5
mp-31923,,,,,,,
mp-18625,1.8858,-0.3306169885167414,3.6236965615235657,0.0,-120.57635833,-3.7680111978125,KPSe6
mp-770316,,,,,,,
mp-684106,3.9954,-2.4793227965963207,3.444363935480569,0.04705811622726497,-295.42681282,-6.714245745909091,LiSbP2O7
mp-760506,3.9857,-1.4274910407338086,2.7688375684716746,0.0663791016666524,-131.36337984,-7.297965546666666,PNO
mp-569563,1.0267999999999995,-2.2745088238814293,3.5551419918342813,0.0,-294.07618757,-5.251360492321429,Ba3Zr6BeCl18
mp-767034,,,,,,,
mp-772334,1.2482000000000002,-1.9370632299999992,4.504380628951456,0.06286309650000277,-89.10023281,-5.940015520666666,Li3Fe3TeO8
mp-778897,,,,,,,
mp-568244,2.3743,-0.812859585625,5.252510832255661,0.0,-50.06750453,-3.129219033125,TlSn2Br5
mp-19373,3.0330000000000004,-2.4134075920833338,2.822865478619495,0.019674113500001592,-136.45325356,-6.8226626779999995,LiVO3
mp-23406,2.128,-1.649673027269119,3.7339799189498857,0.0,-30.23187556,-3.3590972844444438,Cs2PtCl6
mp-644828,1.3692000000000002,-0.9451028480115,3.8958625279733785,0.0,-185.59055646,-2.31988195575,AuXe2F17
mp-866692,1.2419000000000002,-2.0019090347108484,4.37727510204684,0.09226004308333292,-152.0982822,-6.337428425,La3MnAlS7
mp-998233,2.3374,-1.1677010859560002,2.814671174314036,0.028456853000000226,-16.96925372,-3.3938507440000003,InGeCl3
mp-565625,,,,,,,
mp-38357,4.9991,-3.526297238967916,6.314294350369441,0.0,-256.23123694,-5.338150769583333,Ba4Bi3F17
mp-541106,0.7515000000000001,-0.5117082550994315,4.6205265664061415,0.0,-114.58920837,-5.208600380454545,Nb2Se9
mp-756073,3.2844,-2.6994021497916663,3.6684096191148097,0.0585984616666666,-157.76871232,-6.573696346666666,Rb2ZrO3
mp-764479,,,,,,,
mp-552604,1.3088000000000002,-2.4602929626991656,7.314987190746003,0.0,-52.15776397,-6.51972049625,YBi2ClO4
mp-541418,,,,,,,
mp-6772,5.8263,-3.1293557484340657,2.799996822915145,0.0,-379.80723467,-7.303985282115384,CaBe2(PO4)2
mp-558055,0.4558,-0.8393527139772733,4.103377166515628,0.05513026909090968,-98.39198102,-4.472362773636363,In2Cu2SiS6
mp-756769,1.1597000000000002,-2.124910857693453,3.998267665538708,0.0,-149.68948637,-6.237061932083333,Na2TlPCO7
mp-680146,2.3508,-0.5902784661403511,5.066898129151596,0.001727872192982316,-108.77606986,-1.9083521028070176,CdI2
mp-557177,5.6317,-2.9221730554166663,2.1962737277128808,0.0,-544.06457772,-7.556452468333332,Li2Al(BO2)5
mp-557082,5.4777000000000005,-1.354361185052222,1.3377152911694008,0.03434409944444372,-177.45866816,-4.929407448888889,H2O
mp-763566,,,,,,,
mp-767899,,,,,,,
mp-9574,0.9110999999999998,-0.17029016833333324,3.615104245829447,0.04839613708333301,-19.38301192,-3.230501986666667,NaBeSb
mp-767187,,,,,,,
mp-756630,5.723000000000001,-3.757451064750001,7.547275472322378,0.0128234830000018,-159.50645759999998,-7.97532288,DyAlO3
mp-767606,4.3794,-2.7440874131101203,3.246650079829111,0.033781781197912863,-169.36270428,-7.056779345,Na2NdPCO7
mp-774319,1.5557,-2.137957204019607,4.1800858278728334,0.08746784705882593,-203.55688317,-5.986967152058822,Li10Ti2Fe3Ni3O16
mp-25039,,,,,,,
mp-775785,1.9855,-2.542332509201998,10.399350315880408,0.004160820750001904,-422.21313544,-10.555328386000001,Hf2N2O
mp-36031,1.2594000000000003,-1.604676525,6.066897027611612,0.013020362678568986,-71.35483268,-5.0967737628571435,Ca(LaTe2)2
mp-19926,4.114299999999999,-3.281784542812501,5.356023212162092,0.0,-182.13884873,-7.589118697083332,La2Be2GeO7
mp-18575,2.9678,-2.4517878938461544,5.5471471945192885,0.022800678461541324,-179.63911653,-6.909196789615384,Nb2Zn3O8
mp-767834,,,,,,,
mp-27832,2.481,-1.4225306299511107,4.5484959025671765,0.0,-29.04148235,-3.2268313722222213,Tl2SnCl6
mp-768893,1.7748,-1.927658981279761,5.36523595054734,0.0665424115773865,-311.28763832,-5.5587078271428565,Mg2(TeO3)3
mp-770763,3.355,-2.594575064764752,2.8362056181746076,0.0497863535714389,-199.79100945,-7.135393194642857,LiMnPO4
mp-760311,1.7525,-1.736085184107142,3.316628809138453,0.038168305357142,-63.09374601,-4.5066961435714274,Na7SbO6
mp-850429,,,,,,,
mp-769557,0.5962000000000001,-2.5901016328259767,4.155670385397535,0.0802714550000001,-218.41783007,-7.800636788214287,LiMnNbO4
mp-865716,5.3972,-2.878476789395556,4.773053144199267,0.0,-25.36545519,-4.227575865,YbCl2
mp-760244,2.9664,-3.3296276057500003,4.1163465691910215,0.016340821000000002,-465.4234573,-7.757057621666666,Ca4Nb2O9
mp-773187,0.8017999999999996,-2.3524449195897206,4.0104044873341005,0.0625955533928515,-200.87914647,-7.174255231071428,Li4Mn3V5O16
mp-1020030,3.3805999999999994,-2.5145138861666667,4.188740487993747,0.010371856583321735,-262.03461447,-6.550865361750001,LiAl(GeO3)2
mp-556523,2.1324,-1.910250551134001,7.51894771090758,0.0,-173.67762386,-5.789254128666668,LaPb6ClO7
mp-541032,0.34030000000000005,-0.003754091153845925,5.623785351052632,0.03004949961538461,-46.86845906,-3.6052660815384616,Te7As5I
mp-557250,1.9524,-0.7608914901883335,4.776762577500397,0.0,-108.32982248,-4.513742603333333,HgINO3
mp-770749,2.8859,-2.8895472800000004,2.5785164956780897,0.06868932275973982,-329.32277089,-7.4846084293181825,Li2Ti(BO3)2
mp-767873,0.6063999999999998,-2.2685462140625,5.543756931628853,0.0043376639583323495,-340.2577159,-7.0887024145833335,V9Sb7O32
mp-19326,0.8976999999999999,-1.815958168538392,4.581472788951442,0.0044551199999993685,-85.68024705,-7.1400205875000005,MnO2
mp-752393,6.028600000000001,-2.7708985068993512,3.1037041352330634,0.07803250204544733,-157.00987862,-7.136812664545454,Be2P2O7
mp-28859,2.1246,-1.1014263774500002,3.481321971922305,0.0,-59.91015414,-2.995507707,K2HgS2
mp-675093,2.0539999999999994,-2.543746679201999,10.396560298848296,0.0027466507499998016,-422.26970224,-10.556742556,Hf2N2O
mp-32308,2.7623,-2.5196178875000004,8.190209687278706,0.31788582555554434,-150.96386032,-8.38688112888889,Ta2NiO6
mp-560504,3.7737,-2.8548027952100004,3.779505646065996,0.0,-285.9691042,-4.766151736666667,Rb2Sb2OF10
mp-29297,1.1740000000000002,-1.4418219405742856,5.378413263203851,0.0,-47.62078963,-3.4014849735714283,Cd3(ClO)2
mp-761413,,,,,,,
mp-8926,3.4806,-0.9672476980155552,1.7294590138373267,0.0028288645833329795,-68.22917953,-5.685764960833333,Li3BN2
mp-566321,,,,,,,
mp-764046,0.4468999999999999,-2.7022773369311106,4.226609608301937,0.034246825555557685,-132.69065337,-7.371702965000001,V3(O2F)2
mp-850455,,,,,,,
mp-4733,3.1170000000000004,-3.7848211369444438,6.294393950902427,0.01589317944443991,-165.48269395,-9.193482997222224,ThTi2O6
mp-765436,,,,,,,
mp-776689,3.8723,-2.5930058643364275,2.5352950492981146,0.3647000628571382,-265.14558378,-4.7347425675,Li3Fe2F9
mp-31994,,,,,,,
mp-676889,0.5819999999999999,-1.9653103172383708,4.877651596284105,0.021213905348822948,-267.06142299,-6.210730767209302,Ba11(Ta3S13)2
mp-560928,1.6859000000000002,-2.1644856948025,3.5704538167565296,0.0,-506.50947123,-3.957105243984375,Sb2IBr2F11
mp-3838,2.8473,-0.8156337367853332,4.144535764952637,0.0,-123.91073514,-6.195536757,Li5ReN4
mp-24307,3.281,-0.4092387472060867,1.9632259063008168,0.07373860637489038,-134.75045913,-5.858715614347826,CdH8C4(S2N3)2
mp-18704,6.8735,-3.3724898184796714,3.2491320170523594,0.0,-143.33346942,-5.119052479285714,CsLiBeF4
mp-7621,3.1907,-2.167333793,3.0432642337063163,0.0,-82.91536698,-6.909613915,KTcO4
mp-15501,1.3504999999999998,-1.1250850208796292,4.2355820490471645,0.0,-347.30220225,-4.823641697916667,Sr4TiAs4
mp-765990,,,,,,,
mp-771703,4.1704,-3.6888837270833337,4.993109641858112,0.04248696066666646,-239.17798786,-7.972599595333333,LaAlO3
mp-744256,0.6979,-1.5669834123635835,2.418557533030636,0.1268634972646101,-315.23982219,-5.629282539107144,MnH5SO7
mp-15575,3.3260999999999994,-2.988592478375,7.24732359396171,0.0,-558.43004561,-6.980375570125,Ho3Ga5O12
mp-620346,0.5230999999999999,-0.9787827882142855,5.106292361831281,0.0,-117.34239967,-4.190799988214286,Ba3InAs3
mp-770381,0.6810999999999998,-2.4907939871759255,3.3792952340513525,0.14209278999999508,-257.15512962,-7.143198045000001,Li3V3(BO5)2
mp-771863,,,,,,,
mp-765258,1.0421,-2.8820418605232185,2.731887638412739,0.09637928923076801,-63.94749299,-4.919037922307694,Li4MnF8
mp-850133,,,,,,,
mp-10347,2.1782000000000004,-3.33152688127694,6.281333886534557,0.02355284802825075,-136.22874447,-8.514296529375,CsCa2Ta3O10
mp-32482,,,,,,,
mp-30010,2.4572000000000003,-1.7667064484255557,3.1150350341205035,0.0,-122.23772681,-3.3954924113888887,AsKrF7
mp-757890,3.4233,-2.5142579100000004,5.876914683634264,0.04108588797619017,-549.6143656,-6.543028161904763,LiSiBiO4
mp-755449,0.3597,-0.6122990159523803,5.768271116512115,0.05861904803571427,-55.68003176,-3.977145125714286,Cd(AgO2)2
mp-704112,,,,,,,
mp-551456,2.3029,-2.451652344293334,4.316923867320451,0.0,-32.39224431,-5.398707385000002,Ba2CuClO2
mp-555891,5.3872,-3.270176995,1.9926802998299784,0.007820674166666208,-94.90101031,-7.9084175258333325,SiO2
mp-772247,,,,,,,
mp-34425,1.5749,-1.846685545,5.074984706807912,0.043613722142856304,-255.84909225,-6.091645053571429,Zn(FeO2)2
mp-781607,0.4590000000000001,-2.019974629360136,3.1263401293582898,0.478736807975265,-229.84049405,-7.1825154390625,LiMn3(BO3)3
mp-756342,0.8739000000000001,-0.19389782638888892,4.755706940297905,0.053970764270832916,-45.23100886,-3.7692507383333336,AgBrO4
mp-767926,,,,,,,
mp-541005,4.5535,-1.4923411785867815,2.9193102615077473,0.0,-346.09722154,-4.806905854722221,CsH5O3
mp-773317,,,,,,,
mp-31097,5.0593,-0.2962883462466663,1.2248143576003458,0.0,-78.37060600000001,-3.2654419166666666,KAlH4
mp-31702,,,,,,,
mp-767923,,,,,,,
mp-566189,,,,,,,
mp-2172,1.5189999999999997,-0.4846066550000003,3.5906991545703018,0.0,-9.3732972,-4.6866486,AlAs
mp-24030,4.1126,-2.536954024716623,2.706817353729304,0.0,-79.23423276,-7.203112069090909,ZrP2(HO3)2
mp-757312,3.9372,-2.50507744052308,3.3324267159324856,0.012852202880949015,-402.38702635,-6.706450439166668,NaInBP2HO9
mp-39226,2.1,-3.686164629416666,6.099867811673982,0.019956883300000783,-400.2999272,-8.005998544,SrLa4TiAl4O15
mp-31630,2.1562,-3.1697882442499994,7.139476072837367,0.0,-322.03056666,-8.050764166499999,Ba2TaCrO6
mp-674478,4.1689,-2.64288571475,3.6981072811930007,0.04990825199999716,-74.19433126,-7.419433125999999,BaCO3
mp-752400,2.0349,-3.827382176856062,6.839305574262309,0.08048414647727675,-186.24481098,-8.465673226363636,Ce2Sm2O7
mp-1019380,3.3595000000000006,-1.313303273481666,3.2679754857484866,0.25183480687500026,-60.23243307,-7.52905413375,Al3BN4
mp-680061,2.3752,-2.0721230630833336,4.559940623700811,0.04873483475925866,-534.59239908,-5.939915545333331,Rb2Sn(GeO3)3
mp-504898,0.4941,-0.6204838452884616,6.214696920042,0.0,-143.53130542,-5.520434823846153,Nb2Pd3Se8
mp-685862,1.9544,-3.797584747025193,7.442826032116612,0.10078834395350178,-740.10002557,-8.605814250813953,Tm10Ti6O27
mp-19453,2.81,-1.711357627625,4.777382368550682,0.0,-241.73788623,-6.043447155750001,Te2MoO7
mp-703308,4.9013,-2.5458306642040838,3.1839170680344013,0.00046184578124908166,-426.37212741,-6.66206449078125,CsGaP3HO10
mp-753793,6.8982,-4.263520052166333,5.2260618199646975,0.049071456500001887,-125.76613555,-6.2883067775,Ba2YF7
mp-8866,0.5697000000000001,-1.8115595232596984,6.168211012956769,0.0,-336.63523060000006,-5.8040557,La10Se19
mp-765862,,,,,,,
mp-19414,1.244,-1.9451296498750008,2.4119889856504977,0.01385663171874718,-87.02988677,-5.439367923125,K3CrO4
mp-764923,,,,,,,
mp-17979,4.7773,-3.4619585711538465,3.2625807292349096,0.0020372519230864587,-396.91075589999997,-7.632899151923077,BaAl2(SiO4)2
mp-780805,,,,,,,
mp-738663,2.4831,-1.3924801997272411,2.633442182724021,0.046093329913796666,-698.51198203,-6.0216550175000005,Sn2H10C4N2O9F2
mp-15013,2.8263,-1.2133317542708333,2.3103072955601607,0.0,-116.75538879,-4.86480786625,RbBS2
mp-1559,1.5098999999999996,-0.9067181757019996,2.6619284669813417,0.0,-201.83378403,-5.04584460075,Mg3N2
mp-767252,,,,,,,
mp-707841,6.2819,-1.3355441603564933,1.6053251529828143,0.013486193779209009,-240.92864075,-5.475650926136364,PH6NO3
mp-764295,0.5941999999999998,-0.9952920404032264,4.278430286478321,0.0,-145.06731991,-4.6795909648387095,Na4(NiO2)9
mp-19337,1.8813,-2.454686734749999,6.342568762831122,0.0,-377.12207878,-6.285367979666666,Ba3CoSb2O9
mp-763568,,,,,,,
mp-6758,0.4048999999999996,-0.3853397453333333,3.540848267945469,0.004568296111106651,-104.82656964,-2.911849156666667,KNa4SnSb3
mp-772013,,,,,,,
mp-19314,3.1087,-2.308391455677639,3.1252580404655683,0.4128590321321699,-329.85162962,-7.170687600434783,Mn4Be3Si3SO12
mp-1873,3.48,-2.622365735793333,4.674879761171139,0.0,-23.93531616,-3.98921936,ZnF2
mp-540147,,,,,,,
mp-648893,3.3364,-2.3315344136538463,2.7163313095797954,0.004744660096161368,-640.63368015,-6.1599392322115385,Na4V2O7
mp-12418,0.4579,-0.6128348888888885,3.56590385073534,0.0,-40.57984114,-3.3816534283333333,SrCaGe
mp-769906,,,,,,,
mp-14730,2.8708,-2.4997372096875,3.7472439639150332,0.0244340854687497,-416.72670613,-6.51135478328125,NaSiSbO5
mp-554944,2.1049,-2.645890020625,2.6845186284160314,0.0018542756250017332,-204.47040078,-7.30251431357143,TiSO5
mp-1019717,5.6438000000000015,-2.153034274024336,2.6547578700855285,0.0,-396.57852462,-6.1965394471875,CsBS3O11
mp-566537,,,,,,,
mp-675592,0.2982999999999993,-1.7312286271969697,7.525749916060437,0.13823409352272442,-186.18790790000003,-5.642057815151516,Ca(Bi2O3)2
mp-505798,1.6704,-1.1402189397916662,3.2032273180946933,0.0,-299.11648983,-4.154395692083333,Na4TiSe4
mp-779804,,,,,,,
mp-5388,2.7212000000000005,-1.7585980278571425,5.419970160844625,0.013096706428572523,-155.24123138,-5.544329692142856,Zn(SbO2)2
mp-566977,,,,,,,
mp-8697,4.1348,-3.4461187044166666,3.3469117485092004,0.0,-85.95889935,-8.595889934999999,ScBO3
mp-24943,,,,,,,
mp-776229,1.0034,-2.145797598951998,4.338423584990761,0.05240027526200031,-373.35762815,-9.33394070375,Ti2N2O