id,band_gap,formation_energy_per_atom,density,e_above_hull,energy,energy_per_atom,pretty_formula
mp-773067,3.5103000000000004,-3.877612574431818,8.99190445160358,0.01937050318181477,-391.73379312,-8.903040752727271,Er3TaO7
mp-777550,3.6938,-2.5514277152377773,3.2889245398984555,0.3691610304166693,-114.54394688,-4.772664453333333,LiFeF4
mp-548747,,,,,,,
mp-568570,0.6174999999999997,-0.9490427535862068,4.28064183029712,0.007809046999999847,-56.81975326,-2.840987663,CsSnI3
mp-565245,,,,,,,
mp-29102,2.2498,-0.8314096974112501,5.717297065591251,0.0,-125.76695581,-1.96510868453125,Hg3TeCl4
mp-19136,2.3655,-2.6604047914166657,4.5369048908774205,0.013604129874989823,-152.71690124,-7.6358450620000005,TbFe3(BO3)4
mp-720430,5.4108,-2.1872443315795,2.069790310869648,0.0049258156250040494,-253.34333428,-6.333583357,CaB3H7O9
mp-18823,1.0329,-1.328817158194545,2.895745128705524,0.0921064356220187,-137.27088275,-6.239585579545454,K2BaCo(NO2)6
mp-777007,,,,,,,
mp-561187,4.3424999999999985,-2.7831592309166666,4.823307092116131,0.01428241826041621,-147.18114578,-7.359057289000001,NdGa3(BO3)4
mp-23311,1.0457999999999998,-2.0357656099999994,5.323818611360697,0.0,-196.73193385,-6.557731128333333,EuBr2
mp-557904,1.555,-1.559335383101042,3.252910212113902,0.07907302723501974,-461.87265746,-4.811173515208334,SbSe2S(NF3)2
mp-754304,2.7805,-1.4954087029761909,4.354579631492875,0.09657262500000163,-105.89180693,-3.7818502475,BaYI5
mp-720254,5.8773,-1.946574468556587,1.9003526282130168,0.0,-476.08724567,-5.667705305595238,Li2H4(SO4)3
mp-15108,2.0724,-2.035913661875,4.464146195989833,0.0,-377.17579001,-5.89337171890625,RbSnAsO5
mp-680144,2.3419,-0.590244518245614,5.069865393106207,0.0017618200877194126,-108.77413483,-1.9083181549122803,CdI2
mp-29825,4.3281,-2.91428089025,2.4751389575852345,0.0,-363.14660736,-6.724937173333334,K2Si2O5
mp-530149,1.9742,-3.4454978935805083,2.6089633178487692,0.007223188474561938,-419.82295063,-7.115643231016949,Ca12Al14O33
mp-566245,,,,,,,
mp-560163,4.6781000000000015,-3.643174511408666,2.895509012364056,0.0,-424.21203388,-7.070200564666666,Ca4Si2O7F2
mp-16848,2.2893,-0.7571984373214287,5.470036161161588,0.0,-129.79116635,-4.0559739484375,Tl3PS4
mp-776795,3.8401,-1.9863465554761908,3.8393854927760027,0.06176118250000062,-121.8964163,-4.353443439285714,BaYBr5
mp-6922,5.5311,-3.2653339291666663,2.3711284538393884,0.012663739999998924,-71.13217014,-7.90357446,SiO2
mp-566757,,,,,,,
mp-570902,0.20299999999999985,-1.5999482347058824,4.5951873236303715,0.0,-81.52816937,-4.79577466882353,Pr6RuBr10
mp-554906,2.8035,-2.1407274533571425,6.033975354565153,0.035454519249998206,-234.79956319,-5.86998907975,Zn2BiPO6
mp-640515,,,,,,,
mp-560544,1.6195,-2.191596395416666,6.091077541404643,0.0,-220.56685487,-5.251591782619047,Ba3Zn5In2O11
mp-27636,0.2884,-0.9152465206513408,4.333491172067694,0.0,-23.1643728,-2.5738192000000004,Cs2SnI6
mp-27264,0.20279999999999987,-3.474701065793333,2.9487290975914737,0.0,-142.95073109999998,-5.9562804625000005,NaTiF4
mp-763308,,,,,,,
mp-774848,3.9706,-1.3130382930812494,1.9351525453712743,0.0,-379.22531764,-4.989806811052632,H10SeO8
mp-28772,1.6015,-1.001088355224091,2.2543563572163725,0.012354632727272996,-59.79724029999999,-2.718056377272727,SbSCl9
mp-763679,,,,,,,
mp-769924,,,,,,,
mp-779309,1.1802,-2.7316652268412493,3.269512966170168,0.2382989946875007,-197.66003184,-6.176875995,V4(OF3)3
mp-23717,5.3898,-2.664515545655589,2.860943294371953,0.0010228362465527496,-122.46378981,-6.4454626215789474,Ca2MgP2(H2O5)2
mp-19707,,,,,,,
mp-12885,3.4259,-2.7778035082291668,4.2241007346508574,0.0,-80.72142204,-6.7267851699999985,BaAl2Sb2O7
mp-530217,5.467700000000002,-4.126084514228946,4.222556360247529,0.0075646223684451295,-520.51143525,-6.848834674342106,PrZr3F15
mp-553912,3.7453,-2.5163969786111102,3.4951235829810496,0.0,-257.25255937,-7.145904426944443,NaZr2(AsO4)3
mp-774386,2.8400000000000003,-2.3239752492103123,2.7307751752554195,1.531748786471046,-393.35201587,-6.78193130810345,Li2Cr3P4(HO4)4
mp-22720,1.4693999999999998,-3.1582989658333336,4.734086428909209,0.007810040312495658,-127.65284984,-7.978303115,RbSr2Nb3O10
mp-9248,1.2363,-0.7699962357291668,3.892855063330386,0.010958043611110746,-57.32150202,-4.776791835,Cu2SiS3
mp-752686,3.4282000000000004,-3.803235303068182,7.794805139411472,0.0,-195.13214265,-8.869642847727274,Sm3TaO7
mp-721426,5.114,-1.7098525520940953,1.8237235743875089,0.02599626190238702,-322.10178636,-5.368363106,NaPH7O6
mp-25089,,,,,,,
mp-19697,,,,,,,
mp-540486,,,,,,,
mp-644332,2.6901,-3.0396379504370348,3.2320419360993644,0.000311194500000056,-112.20438168,-5.610219084,KMnF3
mp-570700,0.5162000000000004,-0.9530942799166666,7.518090167873878,0.0,-85.05697951,-5.6704653006666685,Hf3Tl2(CuSe4)2
mp-7000,5.7211,-3.267434742499999,2.4873496887421185,0.010562926666665362,-71.15107746,-7.905675273333332,SiO2
mp-853263,,,,,,,
mp-696275,2.5506,-1.0482168360752937,2.21421771427584,0.006646686470586083,-71.15792472,-4.185760277647058,SnH8(NCl3)2
mp-5226,3.5912,-1.8173049954776788,2.8643477362360827,0.00013131761904716652,-141.68202486,-5.060072316428572,K2SeO4
mp-569754,1.4092000000000002,-1.4193427477377711,5.032315380082284,0.0060109101086949215,-414.00565263,-4.500061441630434,Ba7Sn3Se13
mp-752410,2.9627,-2.8116350817857145,4.769698571482931,0.04983971999999959,-180.47824295,-6.4456515339285705,Ba2GeO4
mp-504601,1.7129,-1.537916819422414,4.8359381571226985,0.0,-153.84944307,-3.84623607675,Cs2ZnO2
mp-19765,0.5186999999999999,-0.2941616371428571,5.9715937061653745,0.0,-20.43933166,-2.9199045228571427,In2HgTe4
mp-765344,,,,,,,
mp-705823,,,,,,,
mp-14424,3.7946,-1.8448748320238102,2.6774715475191595,0.0,-287.89372964,-5.140959457857143,Sr(AlS2)2
mp-556518,1.9067,-1.2280624263431577,2.291945757357913,0.0,-453.95338124,-5.973070805789473,K2Pd(NO3)4
mp-560328,1.2258,-0.5527285568175183,4.587130559200198,0.0,-288.94831051,-3.8019514540789467,Ag15P4S16Cl3
mp-557458,,,,,,,
mp-774557,3.0129999999999995,-3.048149969999999,7.765817080750662,0.0,-260.74197229,-7.2428325636111115,Er2TeO6
mp-5061,2.1688,-2.316035772152778,4.883970628738805,0.0,-75.25556353,-6.271296960833332,Li5ReO6
mp-643356,4.1758000000000015,-1.7643695371094446,3.7510316353684816,0.004548738333332914,-105.09876139,-4.379115057916667,SrH2Br2O
mp-555269,1.4990000000000006,-0.4179811963392857,5.5948252825877285,0.0,-103.88569892,-3.710203532857143,Ag3SbS3
mp-762647,,,,,,,
mp-28671,1.1092,-0.933911260625,3.891584393125112,0.0,-60.98045055,-3.811278159375,ZrTe2Br5
mp-28256,0.7207999999999997,-0.40973348328125,4.3917855361972045,0.0,-108.26996791,-4.921362177727274,V2Se9
mp-707929,3.3510000000000004,-1.7625959733670589,1.9020918680724799,0.09080021632918543,-961.19989491,-7.067646286102941,LiBH2C4O9
mp-569766,0.7223999999999999,-0.0818702899999999,4.922312243111769,0.0,-19.324202300000003,-2.4155252875,TeI
mp-757053,0.2793000000000001,-2.555875013386244,3.0837228643610217,0.12142260019047325,-261.23421441,-7.256505955833332,LiNb(PO3)4
mp-772765,4.2631999999999985,-2.7534368015267865,2.8777574615243684,0.03729680729166685,-168.80530524,-7.033554385,K2PrPCO7
mp-8016,0.8932000000000002,-0.625517297421875,4.651354611849125,0.0,-34.67734929,-4.33466866125,AlCuSe2
mp-17217,0.6374,-0.2574453999999997,6.892595150999462,0.0,-91.73796392,-3.2763558542857143,Tl3GeTe3
mp-17989,2.7739000000000003,-1.3295306225089294,2.0208871734832945,0.0,-133.0907486,-4.15908589375,K3PS4
mp-560216,4.1237,-2.60228665756989,3.4547003118677946,0.0,-270.60168813,-6.76504220325,Cs2GeP4O13
mp-777731,3.8412,-2.1070190703787883,3.417562377700969,0.06151204909090958,-355.55286914,-4.040373512954545,Ba6YBr15
mp-4326,2.385,-2.2127557648125,4.363766491969819,0.0,-21.47482654,-5.368706635,KErS2
mp-867961,1.3265000000000002,-1.6402633697387794,4.998249276193138,0.05825258207317141,-227.48917027,-5.54851634804878,Sb16Cl4O21
mp-558566,2.5862,-3.5030966257065224,5.782773916452293,0.0,-341.06685905,-7.4144969358695665,Ba5Er2ZrAl2O13
mp-767229,,,,,,,
mp-743878,2.07,-1.3899519801872733,4.815585310868556,0.1604204124076425,-116.54578795,-5.29753581590909,Fe2Te4H3ClO12
mp-569779,0.2795000000000005,-1.0434496799999995,6.997261856708128,0.0,-18.76830467,-6.256101556666668,ScSbPd
mp-568740,,,,,,,
mp-24292,2.2616000000000005,-0.6851223338948143,4.216494043790467,0.0,-38.25787259,-4.250874732222221,Sr2H6Ru
mp-23443,1.3887999999999998,0.02368119106896529,5.844785843675195,0.5685778620000006,-63.90792252,-3.1953961260000003,MnTlI3
mp-762629,,,,,,,
mp-1016108,2.3348,-1.0405839911899992,4.766285536725132,0.0,-116.88717514,-7.30544844625,TiZnN2
mp-643458,5.9622,-2.0626233362016664,2.049220743489728,0.001029658571428449,-160.17069844,-5.720382087142857,LiHSO4
mp-27576,4.127,-3.3151476091145824,3.851920492033108,0.0,-390.19174834,-8.128994757083333,Sc2GeO5
mp-23349,3.8384,-2.5852101372500003,4.6722440326434365,0.0013254314999997518,-75.25068249,-7.525068248999999,Bi(BO2)3
mp-23944,5.2973,-1.2877566518494998,2.759610205880341,0.013632062999996641,-192.64509189,-4.81612729725,BaH6Cl2O11
mp-770607,2.3291000000000004,-2.7537486130563624,2.474364538037751,0.02974635465909259,-305.66123157,-6.946846172045454,Li3VSi4(HO6)2
mp-765860,1.2323,-1.6860974171428569,5.304938464510959,0.07916664964287001,-90.98451134,-6.498893667142857,Fe2CoO4
mp-675416,3.0111,-3.2129415010277778,4.797570760738392,0.08369315816666577,-453.46258731,-7.5577097885,Sr4Nb2O9
mp-19153,1.0159000000000002,-2.9499180709073047,7.829579643776181,0.0,-172.34474148,-7.833851885454546,Lu2Mn2O7
mp-685991,1.2765,-0.5912393637830683,1.6789995771757442,0.0,-73.05803356,-4.0587796422222215,Li5SiP3
mp-560707,,,,,,,
mp-21526,0.3735,-0.23117847150000026,4.934516681567342,0.0,-84.56552704,-2.64267272,KPb
mp-4104,5.906599999999999,-3.519141812261904,5.939537893495313,0.0,-96.18641496,-8.015534579999999,HoPO4
mp-625850,3.1296,-1.2398510476942854,1.4260723967974445,0.02282501017857186,-293.85014519,-5.24732402125,H7NO6
mp-753751,0.6331,-2.107209706845,4.968740827653008,0.10725442624999992,-32.02278201,-4.00284775125,LiAgF2
mp-27144,3.4619000000000004,-2.2692890394642853,5.445595957386834,0.0,-254.86704308,-6.371676077,TlPO3
mp-23396,1.6713,-1.088667350432,2.58251339052696,0.0,-112.01198804,-5.600599402,MoNCl3
mp-774736,1.6984,-0.9573230857638891,3.3529526582134395,0.0052047652777762465,-49.41235459,-4.117696215833333,LiCuS
mp-703668,,,,,,,
mp-561218,0.0,-0.6437552446964285,5.099748570260592,0.0,-265.56152488,-4.14939882625,KP2Au5S8
mp-625509,4.4183,-1.019356089422,2.333519992989939,0.0,-20.69858244,-4.139716488,H3BrO
mp-9007,1.2845,-0.41340572493506494,2.825260583303173,0.0,-94.06414184,-4.275642810909091,Na6P4W
mp-18584,2.5657999999999994,-3.354372392480468,7.32072287208215,0.007902003828125006,-247.60704355,-7.7377201109375,Ho2SiSeO4
mp-778733,,,,,,,
mp-28144,2.7077,-2.2914994039062506,7.5716916557683875,0.012204301666668194,-105.51309198,-6.59456824875,SiBi2O5
mp-776432,0.23350000000000004,-2.1585293233837004,2.946375554741476,0.03828979512820485,-162.10634140000002,-6.234859284615385,Na2LiCuPCO7
mp-541142,,,,,,,
mp-570231,0.7104999999999999,-1.2456676955862072,4.52957656789241,0.032696205000000145,-12.94072325,-2.58814465,CsCdBr3
mp-997033,0.7091,-0.07188846312499964,5.771751703553902,0.2632845126041663,-29.60462574,-3.7005782175,AuBrO2
mp-556869,2.5763000000000003,-1.614349092596155,5.2255344364196255,0.01454794067306686,-291.50081389999997,-5.6057848826923085,Sb5IO7
mp-554657,4.09,-2.6680135493413983,3.5799318931550284,0.0,-458.05278253,-7.3879481053225815,Na2Tl2B10O17
mp-558268,3.3861,-2.8115151982761537,5.34715419148066,0.0,-528.2590034,-6.772551325641025,Ca4Si6Pb6Cl2O21
mp-763105,,,,,,,
mp-16267,1.0877,-2.0444303360714287,5.2043615123069715,0.0,-76.64549656,-5.474678325714287,Dy2CdS4
mp-685036,3.2993999999999994,-3.3249370350000005,3.573288296568439,0.11079129475000027,-294.82266593,-7.37056664825,Al2O3
mp-767433,1.7404,-3.0680115261703698,3.613803782138616,0.05485438564814693,-167.01046519999997,-6.185572785185184,LiV2OF5
mp-771906,1.5628000000000002,-2.219417800104167,3.079653856651937,0.21900412906250025,-190.14297443,-5.9419679509375,Li2AlCoO4
mp-764856,0.0,-2.5444983495510938,3.141160705304794,0.16770761770980158,-277.29108235,-6.93227705875,Li6MnV3(PO4)6
mp-771738,,,,,,,
mp-675801,2.1642,-1.880630413445,2.046514081621027,0.0,-67.55970631,-4.222481644375,KNbCl6
mp-755219,0.8861999999999997,-2.690340894375,7.792415516026456,0.10548473906250068,-27.94681654,-6.986704135,ScTlO2
mp-566107,,,,,,,
mp-770735,2.2721,-1.6694243195833327,3.9331345780586218,0.0353640779166664,-143.59486347,-5.98311931125,ZnCrO4
mp-17708,3.0359,-1.9907520022321419,4.459342872480198,0.0,-176.38410262,-6.29943223642857,Ge3Sb2O9
mp-767009,,,,,,,
mp-777480,1.4442999999999997,-3.066679454032036,3.688255716119704,0.037582343571440184,-447.53078661,-7.991621189464285,Li2Ti3MnO8
mp-850944,0.9565,-1.7743539353723403,3.069717876560701,0.09217178558890993,-241.77853568,-5.144224163404256,Li21(Co4O9)2
mp-764451,,,,,,,
mp-565934,,,,,,,
mp-9868,0.4605999999999994,-0.682775255708334,4.5074332897006935,0.0038253891666704116,-48.90130045,-4.075108370833333,KCu3S2
mp-10288,0.4803999999999995,-1.4964535470312503,6.3357902673235955,0.0,-86.54927504,-5.40932969,LaCuTeS
mp-763610,2.5476,-2.7771803259523824,3.5676900959671043,0.9714330882539636,-205.58114054,-7.342183590714287,LiCrSiO4
mp-18585,1.1648000000000005,-0.3830803912847228,4.4929123711983685,0.0,-80.38076555,-3.3491985645833338,RbAgSe4
mp-767367,,,,,,,
mp-764835,,,,,,,
mp-558849,1.9161,-1.0139573219020002,5.63742861955562,0.011988757000001016,-72.24894592,-3.612447296,CdBiS2Cl
mp-3349,1.8405,-3.5019945665625003,4.905953288475624,0.0,-92.60214252,-7.71684521,Sr3Ti2O7
mp-772431,0.5598000000000001,-1.4264530431647615,1.9615415074517544,0.04588748913690477,-244.03583864,-5.810377110476191,CoH8(CO5)2
mp-40451,2.0437000000000003,-3.138346630795455,6.283362113764062,0.0,-392.14327403,-8.912347137045455,NaGd3Ti2(SbO7)2
mp-753056,4.5447000000000015,-3.480051825416666,6.269566690373613,0.08921288666666705,-82.79811009,-8.279811009,HoBO3
mp-29164,0.3411000000000004,-2.271108910083333,7.1360930815179024,0.0,-118.67375436,-5.933687718,SrBiO3
mp-766851,,,,,,,
mp-23487,2.8129,-1.3799918758499998,3.822784545185032,0.0,-89.08545519,-4.4542727595,KIO3
mp-556418,3.9568,-1.9228442679150004,1.8043940492783064,0.0,-65.86271888,-4.70447992,AlSCl3O2
mp-695951,2.4369,-2.0718928349326458,3.4969807633909404,0.01965706227776653,-220.08807518,-6.113557643888888,LiAg2P3(HO5)2
mp-625913,2.1805,-1.390999761223999,4.837710954867352,0.03330382775001883,-208.60026243,-5.21500656075,TeHO3
mp-674531,0.5321,-0.5327366087830689,2.1289984148678225,0.00935922000000078,-70.39322592,-3.9107347733333335,Li5GeP3
mp-643245,1.5738,-0.16219697297279684,1.7275966032336103,0.015994322958927217,-60.30271875,-3.3501510416666664,K3MnH5
mp-770575,2.6156,-2.2205450384597634,2.714356902169764,3.1805749354687496,-409.03862801,-6.39122856265625,LiCrPO4F
mp-541293,,,,,,,
mp-735475,3.3082000000000003,-1.9187171340906843,1.9036529007979859,0.006623611181529654,-459.44089124,-6.2937108389041105,CoB12H28(NO15)2
mp-565671,,,,,,,
mp-768788,3.943400000000001,-2.4082795176388894,4.311781280576232,0.0764884331250002,-309.38125299,-6.445442770625,Li3Bi(BO3)2
mp-37947,2.7313000000000005,-1.7926122705681822,2.317636973933471,0.11579242761363685,-64.64949398,-5.8772267254545465,Na4C2O5
mp-571452,1.3151,-0.5192127697205355,3.3009149627059573,0.001970139833337825,-117.64489854,-3.921496618,KPSe3
mp-770392,3.152,-2.0351898110714286,4.55188049496668,0.07401213357142923,-117.14375725,-4.183705616071428,BaLaBr5
mp-961678,0.8689000000000009,-0.7935123700000007,6.845131416822383,0.0056143455555570645,-18.96462494,-6.321541646666668,ScCoTe
mp-775900,1.2606000000000002,-2.3839697757420635,2.9819887487609504,0.08746765539999579,-390.12298387,-6.502049731166665,NaLiCu(PO3)3
mp-1575,2.0461,0.011866991666667085,2.1690182516589864,0.011866991666665605,-40.8348028,-6.805800466666668,CaC2
mp-764148,,,,,,,
mp-18859,1.0282,-2.798540225691587,4.0383981431218166,0.0,-285.01085835,-6.785972817857143,Sr5Cr3O12F
mp-6528,6.69,-3.4319521468002074,4.1295679190170285,0.0,-99.3828517,-4.969142585,Cs2NaAlF6
mp-34322,2.7262,-3.782275350795456,6.727703014408693,0.01829283249998248,-192.656733,-8.757124227272728,Dy2Ti2O7
mp-554483,3.4222,-1.4933212756426089,2.89075009579435,0.013608608695650837,-179.70581726,-3.906648201304348,KCd3H8Cl7O4
mp-769456,1.0853999999999997,-2.163425561985714,2.8541388943624098,0.15016018020000474,-321.67755216,-6.4335510432000005,Na5Fe2P2(CO7)2
mp-29246,1.1183999999999998,-0.4587366148290475,4.18790187388976,0.008837264270833423,-44.11706762,-3.676422301666667,Cd2P3Cl
mp-770779,1.6264000000000003,-2.424372975749999,4.7823092583444575,0.030553469999999194,-159.5970597,-7.979852984999999,VCrO3
mp-555359,2.7804,-2.626320639437034,3.259562430524136,0.4136285055000002,-51.96901773,-5.1969017730000004,KMnF3
mp-775336,0.8045999999999998,-2.034513316666668,4.869670021362468,0.0765971681547617,-175.42337626,-6.265120580714287,Li4V2Co3Sb3O16
mp-28988,1.5437999999999998,-0.7115477667187498,4.688672439447093,0.010021266015625141,-181.51555695,-2.83618057734375,In7Br9
mp-648414,1.1097,-0.9778458643131868,2.511238274464766,0.0,-568.15914485,-5.463068700480768,V2PS10
mp-769232,3.7761,-2.095934958648897,3.915900696178776,0.0,-425.12075214,-6.251775766764705,Dy2(SeO4)3
mp-850368,,,,,,,
mp-561303,2.1344,-0.8177944270892858,2.70179478054592,0.007772641326821096,-90.56735557,-4.5283677785,NaSb(PS3)2
mp-765836,,,,,,,
mp-753055,1.6307,-1.9783429340833338,8.960438747238868,0.06407603145833017,-91.95258123,-6.1301720820000005,TbBi5O9
mp-680183,2.1236,-2.0103246123140472,3.60236213817086,0.0515500507142832,-696.70996588,-4.147083130238095,Te5As2Br4O5F26
mp-850489,,,,,,,
mp-759069,6.0788,-1.924769789468095,1.502911680643548,0.0025729209523808194,-255.65391335,-6.086997936904763,B(HO)3
mp-773414,,,,,,,
mp-19239,2.3029,-2.8614018665410113,3.5845293795550752,0.0,-375.79433427,-6.2632389045000005,Mg6MnO8
mp-778654,,,,,,,
mp-780109,0.0,-2.409160281502574,2.9790497866983814,2.4924344986714377,-521.71842932,-7.0502490448648665,Li4Cr5(P3O11)2
mp-757002,3.8936,-2.7719524277564944,2.3952901471726347,0.03195352878787894,-169.01858049,-7.682662749545455,KZrPCO7
mp-557452,,,,,,,
mp-28514,4.3575,-1.1724945269444444,3.774567084967973,0.005534341111107288,-82.43853493,-4.579918607222221,Ba(BrO3)2
mp-556994,5.3498,-3.1953082925,2.2403766398992278,0.08268937666666609,-94.00258588,-7.833548823333333,SiO2
mp-756935,2.9032000000000004,-2.069982255892857,3.826605715290096,0.009167305642860056,-148.33056137,-5.297520048928571,Li3SbO3
mp-764139,,,,,,,
mp-772283,,,,,,,
mp-780196,0.4102999999999999,-2.3140059467545484,2.9843890750958866,0.3601780481878256,-191.97549332,-6.8562676185714295,LiMnSiO4
mp-16771,3.0276999999999994,-1.7711514795963543,3.8705899953109713,0.0,-175.94503221,-5.4982822565625,MgSe2O5
mp-565953,,,,,,,
mp-765902,1.9126000000000003,-1.1323461826250003,6.58860972646659,0.057298112500001615,-96.54907395,-4.827453697499998,ZnNi4O5
mp-758842,3.1797,-1.4966118664135302,1.918648120793048,0.04751376092437365,-842.56515915,-6.195332052573528,NbH14C4NO14
mp-752773,1.0962000000000005,-2.7123479687616667,3.3088134075697404,0.10681309199999944,-45.96112844,-4.596112843999999,Li4CuF5
mp-27742,1.3581,-1.4321750232,3.678419913991636,0.0,-75.11682691,-3.7558413455,K2CdO2
mp-766163,1.1262999999999996,-2.2484804175,6.388649019388755,0.013767115249998518,-196.19342956,-6.5397809853333335,TiSn9O20
mp-755707,2.8256,-3.2547266250246913,3.2351091572435373,0.0032546823611117053,-216.31375595,-8.01162059074074,K3LiTi7O16
mp-765201,,,,,,,
mp-23197,1.883,-0.6293053024999999,6.979307207229657,0.052229150000000064,-5.14427259,-2.572136295,TlI
mp-989563,1.8121,-1.791847923956,3.2595847341328144,0.008239698166666809,-31.07652917,-3.107652917,Rb2NaTlCl6
mp-23476,1.7985,-0.8591594536085715,4.1793145158795015,0.0,-200.50151791,-2.948551733970588,Cd7(P2Cl3)2
mp-7618,5.3439,-3.5196498634266438,3.6987906097682797,0.033872406999999605,-52.87208121,-5.287208121,Cs3YF6