id,band_gap,formation_energy_per_atom,density,e_above_hull,energy,energy_per_atom,pretty_formula
mp-773162,0.0018,-2.045638587,4.748632086,0.048995078,-71.09313133,-5.924427611,Li3Fe2SnO6
mp-867186,0,-0.210792602,7.787013681,0.026635279,-12.15182086,-3.037955215,CeZn2Ag
mp-782666,0,-2.02169201,4.627043887,0.085608936,-164.746984,-6.864457665,Mn2O3F
mp-706291,5.5731,-2.86500425,2.500140691,0,-409.3272366,-7.58013401,Ca2B8H2O15
mp-753727,2.5815,-1.785034411,4.288806337,0.066825864,-107.7947217,-4.899760076,Y3I7O
mp-11221,0,-0.370665966,5.923767028,0.029761496,-9.20578422,-4.60289211,SmAl
mp-1013545,0,-0.905543291,3.968270196,0.087698992,-19.08068752,-3.816137504,Ca3BiAs
mp-973732,0,0.193732524,7.25313104,0.193732524,-14.86722791,-3.716806978,LiHo3
mp-42089,2.7186,-2.851288523,3.596915675,0,-333.4657198,-7.578766358,K4Gd2C3O9F4
mp-770702,2.3434,-2.48582094,2.865980149,0.104047323,-200.3324305,-6.260388454,Li2AlFeO4
mp-541057,1.3403,-1.139057709,5.300640531,0,-299.9300827,-6.52021919,Rb4Re6S13
mp-561122,0.0612,-1.845048747,5.756190521,0.011928941,-128.5173944,-8.03233715,Gd2SnS5
mp-560513,2.5309,-3.219876608,4.061014085,0,-272.4932635,-8.515414484,Gd3Si2Cl5O6
mp-770544,1.9734,-2.619806792,3.188909345,0.10284222,-83.35573203,-6.946311003,LiAlCrO3
mp-767498,2.1919,-3.135238699,3.955517441,0.030851504,-560.4678707,-8.122722764,Li10Ti11Nb6O42
mp-555463,6.4402,-4.371346303,6.304197157,0.000938569,-232.0525659,-6.825075469,RbTh3F13
mp-560934,3.6589,-2.452418185,3.269445878,0,-658.0721945,-6.09326106,Na2Zn5(PO4)4
mp-558834,0.8801,-2.977590624,4.418138891,0,-577.0387504,-8.485863976,Eu2B5BrO9
mp-753669,0,-0.064673773,8.946758402,0,-89.80686709,-6.908220545,Hf(MnSn)6
mp-28507,0,-2.156615851,5.225383398,0,-532.4334014,-7.195045965,La8Nb7S22
mp-565431,0,-2.238102727,6.795937951,0.004806175,-187.950966,-7.228883308,Rb(WO3)3
mp-775906,4.392,-3.927751237,5.102954061,0.062691977,-362.0221605,-9.050554011,Y2O3
mp-768295,3.0154,-1.594251434,3.856570457,0.061463077,-147.570002,-3.689250049,Ba2YI7
mp-628665,2.1035,-1.462613659,3.6132578,0,-104.1698511,-3.720351824,AlBiTeCl4
mp-867927,0,-0.479368355,14.06882227,0,-30.63230519,-7.658076298,LiVIr2
mp-978494,0,0.321049337,6.356736335,0.321049337,-16.16931215,-4.042328038,SiSn3
mp-17720,0,-0.636683722,4.299703882,0.002510308,-51.08385783,-3.192741114,Sr5Sn3
mp-781053,3.6182,-2.327450505,2.50607907,0.074842805,-448.6978815,-6.598498258,LiFeP3(HO5)2
mp-22486,0,-0.482896222,8.114561742,0,-34.60593673,-6.921187346,Tb(MnGe)2
mp-2889,0,-1.30068488,6.202649059,0,-89.44834113,-5.590521321,LaPd3S4
mp-756006,0.3704,-0.941179546,3.698227926,0.026267676,-24.64655209,-4.107758682,LiSbS
mp-582357,0,-0.480717082,6.6823348,0,-40.46451274,-8.092902548,Eu(FeSi)2
mp-18751,0.7349,-1.985910905,4.98920428,0,-94.07332429,-6.719523164,Mn2ZnO4
mp-22441,0,-2.85868727,7.044234227,0,-71.84274333,-7.184274333,Ba2MgReO6
mp-640898,0,-0.080482852,2.995907274,0.055682504,-70.9370242,-2.446104283,La6Mg22Al
mp-31168,0,-0.247001409,3.918741905,0,-11.38072769,-2.845181923,Li2AlAg
mp-753471,0.034,-2.059125073,3.76673407,0.095181224,-150.8791501,-6.286631254,LiCuBO3
mp-3897,2.222,-1.500459594,3.552399614,0,-263.8926013,-5.497762527,SmPS4
mp-753781,0.4796,-3.740382225,8.894546529,0,-51.62601577,-10.32520315,EuHfO3
mp-568136,0.5946,-1.221724908,3.857048124,1.40E-05,-126.5484401,-4.218281338,RbVBr3
mp-1851,0,-0.544454245,10.59150537,0,-63.99617632,-5.333014693,SnPd2
mp-760837,0,-2.688121673,5.256145812,0,-502.2334327,-8.811112854,Rb3Nb20O34
mp-570044,0.4776,-0.464296998,4.85442357,0,-74.04344447,-3.702172224,NbI4
mp-556517,1.9307,-1.560206859,4.432615618,0,-88.70402101,-4.435201051,K2PbO2
mp-15902,0,-3.22853761,6.274198727,0.042186571,-140.5361976,-8.266835152,Li2Ca2Ta3O10
mp-556069,0,-3.479955027,7.72242095,0.074601866,-243.3090213,-7.848678105,Tb11O20
mp-1759,0,-3.824026625,6.164118731,0.068400938,-165.3612266,-6.890051108,UF5
mp-10679,0,0.01878187,3.559202651,0.01878187,-1.90581179,-1.90581179,Ba
mp-8054,3.5576,-2.657089715,3.965730617,0,-137.6916386,-6.884581929,NaSc(GeO3)2
mp-9245,0.94,-2.499458637,4.565935663,0.006830908,-82.27042357,-4.570579087,LiGaPdF6
mp-540416,0.9763,-2.37443508,2.868577849,0.027134339,-286.5089798,-7.162724494,MnP2O7
mp-8479,1.9781,-0.831693455,5.951823689,0,-72.47205817,-4.026225454,Tl4SiS4
mp-1598,0.4046,-0.321187493,1.751780831,0,-21.41949779,-2.677437224,Na3P
mp-8985,5.264,-3.217753315,4.430171448,0,-413.7448264,-7.388300471,Ba2YC2(O2F)3
mp-12832,0,-2.479428014,6.03046037,0.015793138,-101.5372709,-6.769151396,Ba3CaRu2O9
mp-780444,2.012,-2.759614633,2.822254581,0.022068519,-175.2941995,-5.843139984,V6O5F19
mp-555151,2.0245,-1.139923225,3.991987317,0.000380129,-196.4785707,-3.508545906,ZnS
mp-29033,1.5683,-1.019693288,2.133247818,0,-53.76679069,-2.987043927,P3BrCl14
mp-23023,3.7261,-3.251169582,5.900492871,0,-41.0710605,-6.84517675,LaBrO
mp-1009787,0,0.905515811,9.303956996,0.905515811,-16.68046108,-8.34023054,RuC
mp-864969,0,-0.6414431,6.884964241,0,-18.29952219,-4.574880548,Mg2PdRh
mp-20686,0,-0.347690836,8.822075327,0,-25.90210883,-4.317018138,Ho2In
mp-706489,5.1261,-2.49565323,2.210245721,0.013119195,-876.8972477,-6.850759748,NaB2HO4
mp-765544,2.2346,-3.12483017,3.230028651,0.036813881,-109.0477465,-5.739355079,Li4V3OF11
mp-504742,0,-0.31157051,6.789719867,0,-116.4205961,-4.850858171,Pr8Ga3Co
mp-542222,5.3743,-1.965622694,3.033213328,0.010518717,-473.2056117,-5.770800143,Tb2H16S3O20
mp-540822,0.3978,-1.224061492,4.34672178,0,-101.1792163,-3.613543438,Cs3Zr2I9
mp-770570,3.7745,-3.324611787,8.308088319,0.002600798,-292.3980446,-8.122167906,Dy2WO6
mp-510122,0,0.03162103,13.95199049,0.152928914,-168.6768453,-10.54230283,CePu4Co3
mp-676728,0,0.103008633,5.222549257,0.241180632,-82.84668455,-3.45194519,CdSnAs2
mp-1001833,0,0.060036901,6.655367541,0.060036901,-6.53002947,-3.265014735,InBi
mp-1008786,0.4672,-0.81032784,4.720270559,0.063901562,-6.36740577,-3.183702885,MgTe
mp-976271,0,-3.554050664,3.280331747,0.033103903,-62.38894661,-6.238894661,KTi2F7
mp-18466,2.6013,-3.340080422,6.060403048,0,-248.2852475,-7.758913983,Nd2SiSeO4
mp-28571,0.2976,-1.957726771,4.777454422,0,-63.40468873,-4.528906338,La2Br5
mp-1019554,5.0076,-2.954678364,3.068945477,0,-487.8728748,-7.623013669,BaNaB5O9
mp-650928,2.112,-2.981387311,3.928092272,0.008683949,-963.5403912,-8.306382683,K3Nb7O19
mp-765501,0.0239,-1.911147287,3.985900343,0.066800005,-115.0818641,-4.79507767,Li2NiO2F
mp-676014,4.4125,-3.375985726,3.131714069,0.003252944,-424.6403616,-7.321385545,NaAl11O17
mp-999539,0,-1.941767757,4.113281624,0.062093582,-31.17669963,-7.794174908,MnO
mp-29756,5.2118,-2.817978799,2.701800643,0.002462906,-270.1839896,-7.505110822,RbB3O5
mp-1347,0.2621,-1.434513165,8.426089885,0,-107.8209623,-7.701497308,Th3P4
mp-4068,2.4516,-1.169654585,2.439325955,0,-98.8429295,-4.118455396,Na2GeS3
mp-631436,0,0.638760401,9.180769667,1.492907851,-19.63346604,-6.54448868,VOsCl
mp-556797,3.8608,-2.904915181,3.054200542,0,-208.234964,-6.941165468,K2Si3SnO9
mp-6996,0,-0.455733127,5.111504254,0,-47.97764056,-6.853948651,SmB6
mp-684022,1.302,-0.979060714,5.913737636,0.000261248,-261.8216764,-4.675387079,LaTlGeSe4
mp-553970,2.0106,-1.029266915,4.22061012,0,-121.915695,-4.354131963,CsGeBiS4
mp-647579,3.2203,-0.911649735,3.82798703,0,-116.2528895,-2.421935197,ZnBr2
mp-38951,2.4349,-2.554746997,5.143199717,0,-84.90912401,-6.064937429,Mg(GaO2)2
mp-989511,0.0703,-1.425208859,3.133452835,0.054251282,-29.84283108,-2.984283108,Cs2AsBrCl6
mp-862297,0,-0.669759092,7.593314802,0,-23.02898804,-5.75724701,LiAlRh2
mp-12414,0,-1.074704587,6.622371745,0,-54.30646452,-6.034051613,K(USe3)2
mp-574138,0.8326,-0.620665156,4.433935094,0,-78.35943272,-3.264976363,Cs2Te3As
mp-864675,0.3434,-1.106235179,10.30057487,0,-52.0452677,-5.20452677,Yb3N2
mp-779071,0.4702,-2.740558453,3.401769743,0.088461391,-174.9249162,-6.478700599,LiV2(OF)3
mp-28020,2.5146,-1.561407047,2.478892202,0,-44.46248328,-3.70520694,AlCuCl4
mp-567900,0,-0.091971123,8.674793127,0,-553.11341,-8.134020735,Lu2Fe14C
mp-775271,2.1845,-2.344320223,5.390809136,0.004961219,-203.8549753,-7.280534832,Li2Cr3WO8
mp-513,0,-0.441434294,7.787606481,0.007031872,-40.40277397,-5.050346746,ErGe3
mp-29514,7.5425,-2.412159591,2.101439597,0,-115.2187564,-4.800781515,PHF4
mp-2109,0,-1.011871025,15.01273784,0.017563632,-42.16718821,-7.027864702,CePt2
mp-696225,4.8989,-2.069288216,2.077751998,0.011617767,-498.4689639,-5.664420044,K3P2H7O10
mp-17904,3.3138,-3.805847586,5.729321172,0,-276.0247006,-8.625771893,Nd2TiO5
mp-17588,0,-1.883104662,3.919860785,0,-155.9459424,-4.331831732,AgRuF7
mp-11945,0,-0.55257004,4.95622743,0,-57.6048771,-4.800406425,SmAl4Ni
mp-780865,0.9765,-2.138566148,4.474885701,0.043169948,-92.56848843,-5.142693802,Co3OF5
mp-7431,0,-0.481421586,5.474347739,0,-14.89150738,-2.978301476,Sr(ZnSb)2
mp-554016,3.0569,-3.381413092,2.634363131,0,-491.8570406,-6.148213007,K4Ti2PO4F9
mp-707788,4.9829,-2.194274463,2.069916914,0.007523319,-785.2920677,-6.333000546,NaCaB5(H5O7)2
mp-3347,5.8191,-3.198681355,2.892193152,0,-313.0844906,-7.454392634,Be2SiO4
mp-780880,0.4884,-1.519450474,3.859059939,0,-116.2600308,-4.84416795,Rb2CoO3
mp-722832,7.0659,-2.104817848,2.387951401,0,-204.9296227,-5.123240567,PH3NF5
mp-4510,0.3137,-0.905443017,8.904164529,0,-17.22737565,-5.74245855,DyNiSb
mp-985587,4.8074,-3.236051885,1.62180752,0.210155252,-109.0671341,-7.271142272,Al2O3
mp-12903,0.9205,-0.928946403,6.227446922,0,-38.59334719,-4.824168399,YAgTe2
mp-29631,0,-0.326167636,2.981467081,0.006354002,-108.5380524,-3.192295659,Li11Ge6
mp-557689,4.8228,-3.286851762,2.349305197,0,-183.7653636,-7.656890152,CaAl2B2O7
mp-3708,0,-0.130696317,7.617711364,0.026502819,-76.17712278,-5.441223056,Tl(FeTe)3
mp-22332,0,-1.20007509,6.922903263,0,-26.33645291,-6.584113228,TaInS2
mp-24141,3.6209,-1.550512724,3.479363019,0,-141.5355039,-5.054839423,CsHSeO4
mp-9319,0,-2.578680149,7.277309432,0,-65.83499031,-6.583499031,Ba2PrPtO6
mp-722729,0,-2.701519253,5.361864122,0.028765214,-153.6039113,-4.042208193,Yb6Cl13
mp-972410,0,-0.957470122,11.24573444,0.007665148,-23.19021148,-5.79755287,TmLuPd2
mp-13252,3.5752,-2.633848031,4.306957263,0,-183.8291731,-7.659548878,SnB4O7
mp-328,0,-0.321645037,7.146932466,0,-47.67647102,-7.946078503,Zr2Ni
mp-675022,2.4163,-1.867568687,3.936451363,0.008888203,-17.69625835,-3.53925167,CsPbCl3
mp-759560,0,-3.381862448,3.727624271,0.046246867,-328.5262112,-8.645426609,LiTi6O12
mp-775523,2.2652,-2.531525743,2.985269482,0.043963928,-269.5089198,-6.737722994,Li3Fe2(PO4)3
mp-755046,1.4856,-3.90373125,5.739498192,0.067375549,-168.5603823,-8.871599071,Ce3Y4O12
mp-13072,0,-0.70908801,7.637575327,0,-29.54429804,-5.908859608,PrGe3Rh
mp-570290,1.1484,-1.40054496,4.661369817,0.029071898,-22.29047616,-4.458095232,MnTlCl3
mp-13916,0,-0.407796412,2.126202814,0,-65.5683497,-4.098021856,LiCaSi2
mp-767432,0.4359,-2.992217603,4.915253113,0,-381.7133356,-6.940242465,Sr16V8O31
mp-780203,0.0248,-1.986382377,2.511220399,0.072863592,-200.3560046,-5.272526436,Li9(FeO4)2
mp-540433,3.8405,-2.514591551,3.408466313,0.039312915,-159.6410337,-6.940914507,Li2Fe3(P2O7)2
mp-27199,0.6295,-0.157011145,6.970285181,0,-70.90535406,-2.954389752,AuSeBr
mp-530399,5.251,-3.369041957,3.517310797,0,-406.5055899,-7.259028391,LiAl5O8
mp-764651,1.6529,-2.241040396,3.263152527,0.178764428,-306.9144923,-6.975329371,LiFe2(BO3)2
mp-755924,0,-3.089257558,5.604140405,0.033822365,-111.1290485,-7.937789177,Y2CuO4
mp-505077,4.5248,-1.434067577,1.406605891,0.013795315,-292.5564844,-4.875941406,NaH9O5
mp-541373,0,-2.92737505,7.405477112,0.017296101,-479.1879417,-8.556927531,KTa3CuO9
mp-559770,3.6012,-3.348347098,5.989716808,0.00182252,-453.5386511,-7.558977519,Nd4Ga2O9
mp-769462,1.272,-2.675335323,4.615820265,0.079625348,-432.8371279,-8.015502369,Li2Nb6NiO18
mp-662789,2.071,-1.912449193,3.557045823,0.085946421,-337.6470798,-4.220588498,Te3As2(SF4)3
mp-759382,2.2741,-3.189928953,4.149872648,0.063868705,-390.1139304,-8.669198453,Li2Ti7Nb6O30
mp-865911,0,-0.576577739,11.05218272,0,-9.18899211,-2.297248028,YbPmHg2
mp-630773,0.2582,-0.936999544,4.197486004,0.084285031,-54.22786458,-3.873418899,CdInGaS4
mp-569597,0,-0.414198298,9.112383948,0,-42.78214325,-8.55642865,Np(FeSi)2
mp-7568,0,-0.779137035,8.823104936,0,-36.00401483,-6.000669138,ThSb2
mp-7523,1.6183,-1.976132649,9.257700554,0,-43.74783049,-8.749566098,Th2TeN2
mp-35035,5.29,-0.350154273,1.611817061,0.170700065,-19.33874291,-6.446247637,KCN
mp-542634,0,-0.357511568,8.876126518,0,-69.85143502,-6.985143502,Ta2Te3
mp-14333,4.0686,-3.425110622,6.219234902,0,-106.1197696,-8.843314136,TaAlO4
mp-675336,0,-2.360764807,5.602020415,0.039410024,-178.3015572,-6.603761376,Pr10US16
mp-10785,2.0456,-1.693754142,5.788439576,0,-19.29641668,-4.82410417,RbLuSe2
mp-18895,0,-1.476464698,3.428518665,0.068397396,-41.41003567,-5.176254459,KCoO2
mp-27629,2.3747,-1.804181086,3.179659354,0,-47.48405659,-3.391718328,Cs3Sb2Cl9
mp-753774,3.9742,-3.181941311,6.293794601,0,-26.76910822,-6.692277055,KTmO2
mp-20493,1.7646,-1.185419125,3.924914447,0.005873794,-58.5273193,-4.180522807,Mg(InS2)2
mp-12183,5.3412,-2.862303114,1.819459562,0,-867.0922593,-7.741895173,KB5O8
mp-686001,1.6448,-3.805826598,6.638219003,0.077335177,-185.6956731,-8.440712411,Ce2Nd2O7
mp-867166,0,-3.541884251,10.01778884,0.086124493,-66.82050858,-11.13675143,PuO2
mp-767137,0.507,-0.728296934,4.230657503,0.013978702,-203.6580601,-4.333150214,Li3Sb17S27
mp-689929,1.3533,-2.518735156,2.763537213,0.086472428,-252.4827303,-7.013409174,LiV(PO4)2
mp-626287,3.092,-1.440599628,1.7778509,0.062609658,-269.3603636,-4.988154882,Sr(H8O5)2
mp-569310,0,-0.649316463,9.306182757,0,-38.18360622,-7.636721244,Sr(POs)2
mp-13694,2.3982,-2.598995428,5.485238527,0,-27.73178582,-6.932946455,PrCuO2
mp-6961,0,-0.757741776,7.40991851,0.02465407,-24.08373858,-4.816747716,Sr(SbPd)2
mp-27227,0.7278,-0.822067319,6.820704698,0,-47.55845533,-3.963204611,LiAg3O2
mp-26409,0.1693,-2.757628209,2.74182091,0.039710791,-263.5971349,-7.322142636,LiTi(PO3)4
mp-19384,2.2427,-1.557493688,5.501470359,0,-52.28587431,-5.80954159,Ni(AsO3)2
mp-766411,2.0412,-0.5661107,1.832501873,0.034997835,-387.4297019,-5.534710027,H16PdC4S4(N4Cl)2
mp-20857,0,-0.400333685,7.456589601,0,-58.35675321,-7.294594151,CoB
mp-2552,1.1505,-1.343933669,5.99579376,0.020319077,-42.39479076,-5.299348845,TeO3
mp-803,0,-0.517814673,5.908219684,0,-27.31018856,-4.551698093,DyAl2
mp-744533,2.2826,-2.160382772,3.001740924,0.033026016,-341.4321871,-6.322818279,SrV2P2(H4O7)2
mp-976838,0,0.10399742,12.25412746,0.10399742,-40.38480278,-5.048100348,Ni3Au
mp-568598,0.298,-0.230777764,5.690422311,0.00610009,-16.1939563,-2.313422329,Cu2HgI4
mp-672326,0.2432,-0.141455332,7.998562734,0.000467872,-72.34966183,-4.521853864,In3Ru
mp-31259,2.8849,-1.025693663,5.756386926,0,-239.308708,-4.602090538,Bi(IO3)3
mp-677288,1.719,-1.856895162,1.866498337,0.047103068,-233.3566933,-5.30356121,Mg5AlH21O17
mp-560016,1.9772,-2.924764151,3.545305612,0.000101556,-383.5318622,-7.990247129,NaNb2PO8
mp-778878,3.3976,-2.177906509,3.877759726,0.086900988,-158.6359276,-4.957372738,BaLi4O3
mp-768605,3.2861,-3.916177893,6.968368681,0,-278.0590001,-8.689343753,Ho2TiO5
mp-31110,3.6261,-3.523678933,7.015067813,0,-155.5499929,-7.777499645,Sm3GaO6
mp-744439,1.7108,-1.62913642,2.977448592,0.018160631,-923.4196777,-5.771372986,MoH4O5
mp-5857,4.9766,-3.293824017,3.820736465,0.098900119,-196.2518808,-7.008995744,MgAl2O4
mp-13063,4.1342,-3.950768177,8.655134434,0.056186866,-41.68801584,-8.337603168,Tb2O3
mp-862755,0,-0.30992536,7.958947335,0,-8.76758596,-2.19189649,PrCd3
mp-540924,0.4539,-0.457452608,5.026952492,0,-80.39998024,-4.019999012,NbTeI3
mp-641534,1.3323,-1.361104913,6.022216694,0,-129.159302,-5.381637583,Nd3CuSiSe7
mp-734733,2.7886,-0.547077756,1.851116506,0,-270.1373587,-3.33502912,Ca19(Mg4H27)2
mp-770341,3.097,-2.568045914,3.910172628,0.009207377,-109.1511615,-6.821947594,Li4AlCr3O8
mp-40478,2.4818,-3.170203906,6.488840876,0,-336.235958,-7.641726318,NaDy3Ti2(SbO7)2
mp-27791,4.1295,-3.134426576,3.56805034,0,-109.7072565,-6.856703533,SrBe3O4
mp-583184,1.4506,-0.512962159,5.941960662,0,-211.4021327,-3.775038083,Tl3Ag3(AsS3)2
mp-973662,0,-0.316066836,9.667790462,0,-15.68812408,-3.92203102,Lu2ZnCu
mp-27514,1.2305,-1.51788547,2.178647698,0,-95.68379648,-3.986824853,NaFeCl4
mp-1980,0,-0.449100945,11.31495666,0,-28.86530731,-4.810884552,YbNi2
mp-865744,0,-0.695905554,10.93286125,0,-15.58347833,-3.895869583,YbCdPd2
mp-763174,1.7042,-2.627472695,3.344014725,0.091916852,-147.4054693,-6.141894555,Li2VO2F
mp-662588,2.4952,-1.161230946,2.568339559,0.047325305,-550.779019,-6.258852488,SbRu2C6Cl7O6
mp-635413,0.1864,-0.281477271,4.654772732,0,-7.71032418,-1.927581045,Cs3Bi
mp-779587,0,-2.974143338,3.14805898,0.076071523,-288.344655,-8.009573749,TiPO4
mp-1057,0,-0.611407634,4.767798505,0,-25.85786067,-5.171572134,Al3Ni2
mp-850882,1.6751,-2.575493717,2.758132166,0.098277625,-322.2424085,-7.005269751,Li2Cr(PO3)5
mp-631474,0,0.784611818,11.64859873,0.79941029,-20.23118103,-5.057795258,BiSb2Os
mp-580192,0,-0.854365389,10.71363954,0,-93.1913786,-5.824461163,HoGe2Pt
mp-10381,1.1111,-0.31307676,3.311058105,0,-23.39922835,-2.924903544,K2CuSb
mp-127,0,0.027145925,1.050960849,0.027145925,-1.3112556,-1.3112556,Na
mp-1019774,0.2709,-3.283142202,2.861975782,0,-599.9367602,-7.499209502,K2CeAl(SiO3)4
mp-680085,2.0167,-1.140085888,3.999541081,0.000217467,-308.766354,-3.508708568,ZnS
mp-4476,0,-0.670812863,7.748221995,0,-32.23021962,-5.37170327,HoCuSi
mp-10181,0,-0.503666044,5.969889193,0,-20.90446695,-5.226116738,LiSiNi2
mp-2724,0,-1.147788815,7.713231627,0,-11.05038854,-5.52519427,TbSb
mp-1123,0,-0.464167772,7.128034118,0,-4.69644453,-2.348222265,HgS
mp-27609,0,-0.444499852,8.721030712,0,-94.11106879,-7.842589066,U3Fe2Si7
mp-22261,0.0177,-0.26903129,5.778677144,0,-28.42421205,-3.553026506,InCuTe2
mp-560022,1.7784,-1.174981225,5.394276585,0,-315.0976002,-6.849947831,Ba9Nb2CN10O
mp-571557,0,-0.213681292,6.81531964,0,-143.958139,-6.543551773,V6Ga5
mp-1019535,4.9112,-3.467516679,3.170793996,0.006725246,-99.16047271,-7.62772867,BaAl2(SiO4)2
mp-648069,0.7772,-2.687628201,4.134036225,0,-232.3312755,-6.453646541,Ca2GaFeO5
mp-865985,0,-0.264991036,10.83208814,0,-17.50912435,-4.377281088,CdPd3
mp-8580,0,-0.967140934,6.39089174,0,-32.351464,-6.4702928,Ca(PRh)2
mp-13073,0,-0.59536937,7.193298662,0,-54.8140468,-5.48140468,PrNiGe3
mp-12041,0,-1.07899257,9.514871773,0,-34.29581956,-5.715969927,DySbPd
mp-673029,0,-2.468047285,3.057893176,0.086706905,-327.6630343,-6.826313215,LiSn2P5O16
mp-675223,1.521,-1.515714941,6.106846953,0.086990888,-138.9890068,-5.34573103,La4Ag2Se7
mp-767727,0,-2.679746036,3.690479521,0.087266687,-209.2466042,-5.812405673,LiMn2OF5
mp-720299,0.8713,-2.137477052,2.605174752,0.005442042,-213.4864203,-5.337160507,ZrCuH8(O2F3)2
mp-1013874,0,-3.01045696,3.051214342,0.056124216,-312.8234067,-7.820585166,NaTi3P3O13
mp-694965,0,-0.94269647,4.5840508,0.044170677,-127.7134175,-4.730126575,Li3(NiO2)8
mp-975913,0,-2.946850582,6.855146887,0.252992357,-42.31031911,-8.462063822,PrNbO3
mp-667283,2.338,-2.796609489,5.622309746,0,-710.0821799,-7.396689374,Sr5Re3ClO15
mp-778246,0,-2.474056847,2.961384447,0.035638451,-265.4523779,-6.985588892,Li2Mn2(PO4)3
mp-754839,0,-1.715721237,6.735867072,0.088039239,-35.10763057,-5.851271762,SnBiO4
mp-753299,1.2706,-2.120062741,4.514656174,0.07095405,-64.23198982,-4.014499364,LiAgF2
mp-18299,0.2423,-3.731795689,8.845230438,0,-182.8933763,-7.620557346,UF3
mp-768764,0,-2.086424726,5.532602979,0.055893288,-108.6052306,-6.033623924,Li2BiBO5
mp-21456,0,-0.409378263,5.985579281,0,-30.90203158,-3.433559064,SmMgIn
mp-30594,0,-0.070978522,9.487851788,0.014688227,-87.72081457,-4.386040729,Cu4Pd
mp-30791,0,-0.580388935,8.536913738,0,-124.5684178,-5.662200807,Ho3(AlNi3)2
mp-623038,0,-0.560434695,8.263242292,0,-551.9415892,-8.624087331,Nb5As3
mp-983429,0,-0.221599012,10.32516758,0,-28.77034058,-7.192585145,PmDyRu2
mp-24018,2.622,-2.195760961,4.135481363,0,-208.2264985,-5.784069403,CaZnAsHO5
mp-975144,0,-0.289373974,5.114314137,0,-22.3663568,-2.7957946,RbZn4As3
mp-16825,0,-3.161690456,8.656713273,0.003998276,-235.6608359,-10.71185618,Gd3OsO7