id,band_gap,formation_energy_per_atom,density,e_above_hull,energy,energy_per_atom,pretty_formula
mp-774762,0,-0.889806916,3.37509628,0.081629012,-114.5457354,-4.090919123,Li2Cu2S3
mp-755881,1.8794,-3.211933855,4.595989935,0.019295619,-181.0780739,-8.622765422,Ba2Ti6N2O11
mp-568823,0,-0.688661678,16.0613732,0,-28.20869892,-3.526087365,YbAu3
mp-20756,0,-0.618790578,6.135919798,0,-38.60567365,-6.434278942,LaTiGe
mp-504937,1.0831,-0.543100038,3.188544867,0.005808894,-214.1699937,-3.14955873,SbSe9Cl7
mp-752535,1.0782,-2.356805692,7.376929559,0.106605599,-151.2416022,-6.874618282,TaIn3O7
mp-578953,0,-3.227355482,3.275380961,0,-842.9511014,-8.105299052,YbZr6(PO4)9
mp-19408,1.1531,-2.444803235,3.181040311,0.024129509,-229.5715407,-7.174110646,LiV2O5
mp-866807,3.3509,-1.981521183,2.287243568,0.020236833,-133.4481368,-5.132620647,TiZnH12(OF)6
mp-975405,0,-0.524620471,7.315133546,0.386235405,-19.59250203,-3.918500406,RbAuO3
mp-676002,6.2167,-4.237141434,4.961596884,0.044811246,-60.94813405,-6.094813405,Ba2PrF7
mp-10598,0,-0.026385725,7.86565031,0,-16.32292233,-4.080730583,CuSn
mp-780336,1.9752,-2.579942387,3.167052699,0.083715418,-369.8707041,-7.112898156,Li3Cr3(PO4)4
mp-29617,0,-0.148228459,7.289082991,0.026073038,-72.46690151,-7.246690151,V3Sb2
mp-17173,0.1949,-0.868798285,6.241248006,0,-117.7244915,-5.886224575,Rh2S3
mp-703312,5.2005,-1.990522715,2.494267894,0.017158024,-249.6523971,-5.673918117,RbPH4O5
mp-570138,0,-0.635659651,6.237268638,0,-44.99202785,-4.999114206,Tb2Al4NiGe2
mp-2604,1.1162,-0.575648905,5.167635979,0.007170697,-38.46444774,-3.205370645,MgTe2
mp-28549,4.4497,-2.448945791,2.136902443,0,-165.5635528,-5.518785092,Li8SiO6
mp-755911,0.0863,-2.443069271,12.04782105,0.108308128,-209.0206462,-10.45103231,Hf2N2O
mp-32645,1.808,-2.45401085,5.756719859,0.015532627,-256.7680646,-6.419201615,Sm2S3
mp-776268,1.6744,-1.283296887,2.384339198,0.055633842,-322.8628199,-4.035785248,Li5SbS4
mp-626791,1.4866,-2.116824283,3.776140104,0.003653846,-110.2282781,-6.889267379,VHO2
mp-504962,1.9199,-1.66571151,3.127903019,0,-170.2020297,-4.255050742,K2Na3InO4
mp-24659,0,-0.368771326,11.39813891,0.004464414,-44.97538303,-5.621922879,UH3
mp-778512,0,-2.825907975,2.900263234,0.10009564,-242.1796152,-5.045408651,LiFeF4
mp-16569,0,-0.228749206,5.8046992,0.029224231,-777.6302936,-5.635002128,Al17(Re2Si)2
mp-23146,4.3706,-1.86589769,4.478379419,0,-160.7635512,-5.023860974,TlZnSClO4
mp-998732,0,-1.304590379,4.448469009,0.064196153,-15.40331233,-3.080662466,TlInCl3
mp-5186,0,-0.629383544,6.732550734,0.012319531,-72.03336645,-6.002780538,ScNiSn
mp-651707,5.696,-3.281457108,1.846864814,0.007693908,-664.2305284,-7.90750629,SiO2
mp-21525,0.405,-0.206267451,5.295186268,0,-82.08862883,-2.565269651,RbPb
mp-567415,0,-0.516091144,5.945181092,0,-186.1418485,-6.64792316,Nd2B5
mp-20999,0,-0.961387522,6.681348438,0,-30.29104273,-6.058208546,La3InN
mp-18219,2.5741,-3.367276443,7.165943916,0.000520245,-247.8783067,-7.746197085,Dy2SiSeO4
mp-769605,1.5101,-2.421980174,4.054988985,0.005414916,-220.9264237,-6.903950739,Li4VCr3O8
mp-26301,0.2376,-2.304939582,4.287170522,0.072981211,-472.5589613,-6.563318907,LiBi2(PO4)3
mp-505789,0,-0.867712889,7.601221869,0,-170.4717735,-6.556606674,Ce2Ni7P4
mp-6255,4.1026,-3.617536693,3.415862913,0,-632.0625046,-7.900781307,Ca3Sc2(SiO4)3
mp-8768,0,-0.731701763,3.364557707,0.041350694,-39.93634124,-3.993634124,K2CoSe2
mp-504630,1.6598,-0.862303381,4.501929837,0,-77.8802767,-3.245011529,InTeCl
mp-698056,3.9854,-1.915894448,2.997836381,0.000945392,-204.2909351,-5.376077239,Na2CdH4(SO5)2
mp-21660,0,-0.510030715,10.24247351,0,-251.6568231,-6.291420577,HfGa2Co
mp-776146,1.0216,-2.400131874,3.894420174,0.008988125,-396.5902398,-7.081968568,Li2V3FeO8
mp-781601,0,-1.96471218,4.758295666,0.0692529,-166.1853331,-6.924388878,Mn8O13F3
mp-559498,1.072,-1.701246341,4.665219055,0.004962699,-521.4451291,-4.82819564,K9Bi5O13
mp-8993,2.4108,-3.003595358,6.060465609,0.006986347,-142.4237091,-7.121185454,Sm2S2O
mp-2923,0,-2.26057195,6.837030552,0,-161.7783385,-7.353560839,Ca2Os2O7
mp-6485,1.6395,-1.450299723,5.80715268,0,-129.7277158,-5.405321491,La3SiAgSe7
mp-12233,4.6602,-2.705414644,2.88421249,0,-720.2945221,-7.503067939,ZnB4O7
mp-570562,0,-0.385599712,10.23199686,0.004089532,-46.9378035,-4.69378035,Te3Pt2
mp-849475,1.7911,-2.451944466,3.296177225,0.032007726,-162.4701823,-6.76959093,VO2F
mp-676555,0,0.008324262,6.508545539,0.073170494,-45.98176164,-3.065450776,Ag8GeTe6
mp-569491,1.643,-0.945695625,4.771179928,0,-238.1736068,-4.253100121,NaLa(GaSe2)4
mp-29582,0.5086,-1.773316277,2.330724349,0.03761676,-61.76253401,-4.411609572,Li2CrCl4
mp-561196,2.027,-1.139886732,4.000116106,0.000416623,-98.23826354,-3.508509412,ZnS
mp-26304,0,-1.884367522,3.598288747,0.012619297,-307.7512799,-6.280638366,Cu9(PO4)8
mp-542826,1.2338,-1.363417873,5.802825652,0.020180159,-159.4738752,-5.695495542,Sc2PbSe4
mp-542208,0,-2.354249828,7.094393007,0,-205.794097,-6.859803233,Ba3NaOs2O9
mp-559643,1.1691,-1.07781165,2.666933314,0,-109.3086845,-4.968576569,Rb2Mn(PS3)2
mp-771304,3.4709,-2.347716702,3.116857403,0.088061966,-169.2145568,-6.508252183,Li3SiSbCO7
mp-542220,0,-0.231446461,3.909200234,0,-49.55878651,-2.064949438,Cs3As
mp-755650,2.9958,-3.84255333,7.305129364,0.089641479,-225.0032685,-11.25016342,Gd3YO6
mp-1018125,0,-0.31570328,9.866629371,0,-29.18522175,-9.72840725,Ti2Re
mp-676248,0,-0.077967569,6.913460022,0.204865825,-27.45332291,-3.431665364,GaCuTe2
mp-555109,3.4056,-3.605464073,7.335988354,0,-106.2595253,-8.85496044,TmNbO4
mp-567540,0,0.020046115,6.012916825,0.020046116,-60.21245069,-3.010622535,Ga
mp-558967,1.7459,-1.310057593,3.194237793,0.003672775,-344.4457705,-5.381965165,K3Ta2S11
mp-974970,0,0.711566382,2.106748374,0.711566382,-9.36258114,-2.340645285,Rb3Mn
mp-764620,1.6916,-2.328528613,3.163581421,0.075025944,-302.2909713,-7.19740408,LiFe4(BO3)4
mp-1042,0,-0.820673134,9.983667668,0,-68.08356497,-8.510445621,HfSi
mp-30727,0,-0.171946257,7.681773166,0,-8.86420149,-2.216050373,MgCdAg2
mp-861944,3.455,-3.124164163,5.458076548,0,-136.6748557,-7.593047541,KNaPrTaO5
mp-30465,0,-0.741759739,10.06288331,0.068977786,-23.68895194,-5.922237985,YBiPd2
mp-979073,0,-0.036217529,4.394773061,0.01024582,-14.16425536,-3.54106384,TmMg2Sc
mp-11190,0,-0.485562943,4.640042508,1.56E-06,-64.1595855,-7.128842833,VSi2
mp-24436,3.8225,-2.162304513,2.866054046,0.001512553,-459.7167748,-5.893804805,Ca5As4(HO2)10
mp-600050,5.8144,-3.224777187,1.641284897,0.064373829,-565.2594986,-7.85082637,SiO2
mp-722278,5.7483,-2.709154736,3.227208764,0,-154.2397784,-7.010899019,BaSiP4(HO7)2
mp-2691,0.5101,-0.627389597,5.300487005,0,-5.65901296,-2.82950648,CdSe
mp-763740,2.961,-2.588337063,2.322911095,0.037584648,-96.16828178,-6.869162984,LiFeSiO4
mp-1019537,3.2194,-2.084342067,3.535899524,0.03679681,-217.9927219,-7.785454354,BaAlSi4N5O3
mp-758997,1.4634,-1.651004369,3.570337425,0.090540703,-113.4540309,-6.303001714,LiCuCO3
mp-1013878,1.2858,-2.68667321,3.065634108,0.013964884,-298.0116668,-7.45029167,LiV3P3O13
mp-771256,3.5442,-2.72082194,4.107543873,0.002097171,-334.1194013,-6.425373102,Sr3(AsO4)2
mp-554782,2.1324,-1.164788798,2.83957348,0.036076528,-96.1984336,-4.372656073,Li2Ga2GeS6
mp-1718,0,-0.283762377,7.692950769,0,-52.63694166,-8.77282361,ZrFe2
mp-6638,0,-0.604719529,6.60258335,0,-50.7589975,-7.251285357,Nd2Fe2Si2C
mp-541214,3.7769,-1.94679311,2.132751294,0.010576432,-259.193405,-5.399862604,KS2O3
mp-7858,1.6948,-3.481686632,7.009875854,0,-101.3870235,-8.448918623,MgUO4
mp-769229,0,-2.556647667,8.795081837,0.093286762,-149.3212882,-6.787331283,Ho2Bi2O7
mp-30893,0,-0.877680375,6.073175834,0,-49.14942174,-3.510672981,Sr4Bi3
mp-866110,0,-0.216375521,13.19114763,0.006211873,-30.5043357,-7.626083925,Ho2OsRu
mp-567207,0,-0.271706409,6.201982177,0.001057162,-28.1000375,-2.81000375,SrIn4
mp-769464,2.2105,-3.223634077,6.477035951,0,-369.7386465,-7.702888469,LiLa3MnO7
mp-27761,5.6859,-3.584579128,4.330922099,0.210473191,-250.0321726,-5.682549378,Li3ThF7
mp-758337,5.3661,-2.87883092,2.291571964,0,-360.5663739,-7.211327478,Ca2P6O17
mp-24662,3.4262,-0.306711808,2.429170357,0,-92.9812042,-2.7347413,Rb4Mg3H10
mp-867839,3.0334,-3.215451722,8.47743035,0.006894895,-508.0110601,-9.407612224,Ta7BiO19
mp-11453,0,-0.884409979,12.76541226,0,-116.1051743,-7.256573394,HfPd3
mp-27425,3.9595,-2.186076938,3.277085506,0.002552115,-110.186967,-5.509348352,Sr(HO)2
mp-706670,0.8267,-1.561074263,1.807068471,0.006498804,-285.5829287,-5.192416885,AlCuH28S2ClO22
mp-553278,1.4082,-3.01922746,6.519694953,0,-79.64604335,-7.240549395,Nd4Se3O4
mp-774258,0.0006,-2.911888203,3.276341159,0.110074816,-288.3194819,-8.008874498,Ti5Nb(PO4)6
mp-560875,3.0057,-2.191081913,4.089689547,0.005763341,-549.6937133,-6.107707926,K2Ge4O9
mp-23326,5.2275,-2.890045765,2.581244766,0,-103.0984073,-4.68629124,Ca4Cl6O
mp-768812,3.037,-2.434615568,5.478930831,0.073303645,-248.8275474,-6.911876315,LiBiB2O5
mp-865164,0,-0.102771796,10.79236075,0.025089277,-19.47863389,-4.869658473,HfCdCu2
mp-774355,0.5411,-2.436776288,3.092473286,0.062610541,-194.8190136,-6.49396712,Li3Co2(SiO4)2
mp-31488,3.7756,-2.733093001,3.806371618,0,-218.4298476,-6.825932737,Li3NbO4
mp-30852,0,-0.45052803,19.08272026,0,-60.40651082,-6.711834536,TiPt8
mp-767521,2.7683,-2.331076315,3.186655601,0,-155.2435029,-6.468479286,Na2InPCO7
mp-976155,0,-0.968611074,11.62703835,0.01174512,-27.67225074,-6.918062685,HoLuRh2
mp-557232,0.7419,-2.3182473,5.992050501,0.022619434,-75.18710951,-6.265592459,KSmPdO3
mp-9856,1.3735,-1.382857495,4.213509409,0,-58.20789054,-4.850657545,Cs2ZrSe3
mp-8743,0,-0.782149329,7.199330544,0,-51.33457554,-6.416821943,HoCoSi2
mp-762279,2.7846,-3.394800586,3.334936526,0.009109656,-228.9063615,-8.47801339,K2Ti8O17
mp-775287,1.497,-2.678402197,4.087083313,0.013769775,-168.8372423,-5.627908078,Fe10OF19
mp-29194,1.4578,-0.676000685,5.726762603,0,-47.07705279,-3.362646628,Cs2Au2Se3
mp-862601,0,-0.107206152,6.891490822,0.148006049,-21.41334971,-3.568891618,RhI2
mp-779059,0.8933,-2.810978254,3.359141571,0.04597396,-220.7187025,-6.491726543,LiV4O5F7
mp-555704,3.3417,-2.42338095,4.409581304,0,-317.5889895,-6.616437281,ReO2F3
mp-5416,4.2261,-1.811034609,3.255875415,0,-118.8470228,-4.951959281,Na2SeO3
mp-776006,0,-2.436081286,3.459044816,0.042218529,-172.9941707,-7.208090445,VCo(PO4)2
mp-2226,0,-0.90102092,10.30574471,0,-11.58562769,-5.792813845,DyPd
mp-759874,1.2798,-2.289399265,2.993265303,0.085313344,-520.6346993,-6.507933741,LiCu(PO3)2
mp-7594,6.2725,-3.022823274,3.912085743,0,-70.94302427,-4.433939017,CsLiF2
mp-6013,1.6708,-0.738497109,5.107261699,0,-82.06070104,-5.128793815,KTa(CuSe2)2
mp-675554,0,-1.050411675,7.604897939,0.008785967,-154.5962531,-5.521294754,Nd(SmSb)3
mp-604964,5.0153,-1.08006334,1.567491761,0.069927979,-452.1186034,-5.948928993,PH9C(NO)4
mp-707095,5.4776,-2.653589687,3.639139592,0.003113409,-444.2586624,-6.9415416,YHSO5
mp-754761,3.8531,-3.617994087,6.42324948,0.00539638,-222.2158156,-7.936279129,Sr2HfO4
mp-974565,0,0.464825954,8.527851623,0.814525588,-26.81393643,-6.703484108,ReP3
mp-29550,0,-2.684558811,3.752818628,0.010406524,-199.0494541,-4.976236352,Ba2EuCl7
mp-554206,3.6624,-2.522445419,3.778160948,0,-80.95936674,-6.227643595,Cs2Al2As2O7
mp-3595,0.8891,-0.198575675,4.530761167,0,-33.57626036,-4.197032545,ZnSiAs2
mp-545659,1.7331,-2.844751041,7.448968753,0,-66.15887771,-6.615887771,Ba2DyBiO6
mp-569532,0,-0.570617632,6.604100446,0.021443421,-95.15190707,-5.946994192,TiCu2P
mp-864676,0,-0.562854259,7.367328282,0,-96.20457227,-4.008523845,Yb2AlGe3
mp-1483,0,-0.791658437,8.224433915,0.032271344,-57.42228784,-7.17778598,SiRh
mp-27947,0.2706,-0.172930951,6.193925185,0.000167389,-26.04426706,-3.72060958,Sn(SbTe2)2
mp-755353,1.783,-3.207550251,4.154676591,0.025088565,-180.5049376,-8.595473218,Sr2Ti6N2O11
mp-680690,0,-1.584966345,7.157358833,0.034565739,-136.704854,-6.835242701,LaCu3(RuO3)4
mp-554328,3.5176,-1.855335997,2.443237895,0.159693425,-67.56955362,-5.630796135,NaSO4
mp-27292,2.6253,-2.158586078,5.241141465,0,-127.8986396,-3.761724693,Hg3As2F12
mp-541852,0,-0.186751354,9.767245727,0,-219.6845444,-7.575329116,Co21(ReB3)2
mp-693682,3.9101,-3.115318615,3.020061691,0.029755141,-1196.468959,-7.431484215,Na25Zr11Sc5Si12(PO8)12
mp-570423,1.0197,-1.652947078,5.106295985,0,-202.0865001,-3.608687503,Ba6Pr3I19
mp-619775,1.0406,-1.347228642,4.515086433,0,-239.0856988,-5.433765883,Y7C2I12N
mp-540881,2.6311,-1.140666722,4.23646855,0,-64.08252693,-2.670105289,Cs2AgI3
mp-571458,0.9997,-0.777347667,4.234148355,0.024728824,-14.08319473,-2.816638946,RbGeI3
mp-1017447,0,-1.194209942,9.566803496,0.340203064,-23.57673194,-4.715346388,HgGeO3
mp-676591,0,-2.859752207,4.347288258,0.037762035,-463.2216963,-7.851215192,Li11Nb12O36
mp-686042,1.8634,-2.13953237,3.729739585,0.089993609,-227.5415629,-5.834399049,Zn4B2O7
mp-559366,4.2398,-1.234954256,2.529185495,0.0147824,-128.1098908,-5.337912118,PBrNF
mp-21656,0,-0.555429559,11.04097603,0,-373.8194126,-8.900462205,Ta11(FeSe4)2
mp-12901,0,-0.54944388,8.451956349,0.019555832,-49.42430637,-5.491589597,Tb6FeSb2
mp-779314,2.8247,-2.355189032,2.828842038,0.080203457,-129.5462929,-6.477314645,Li2CrPHO5
mp-862630,0,-0.090219406,14.35274009,0,-81.20558437,-10.15069805,ReRu3
mp-21077,0,-0.776555316,7.269822716,0,-46.11312337,-5.764140421,LaNiGe2
mp-998979,0,-0.028151973,5.871080978,0.097624253,-26.55584829,-6.638962073,Ti3In
mp-616135,0.8444,-0.34445979,3.817575574,0.001159273,-116.9271544,-3.24797651,Cs5SiP3
mp-567371,2.051,-0.731743706,4.328747439,0,-80.6205318,-5.37470212,Sr3Li4(GeN3)2
mp-973136,0,-2.311415122,6.543675032,0.298944256,-30.86064294,-6.172128588,LiSmO3
mp-578628,0,-2.058671829,7.476708653,0.046270211,-192.5727647,-6.017898896,Sr2YCu3(PbO4)2
mp-865514,0,-0.687064451,11.32382036,0,-19.77228266,-4.943070665,YSnAu2
mp-697797,1.1527,-2.53336175,2.648893937,0.037040181,-245.6410295,-7.224736163,V(PO3)4
mp-758054,1.0323,-1.963867256,3.599969242,0.039240917,-44.40410059,-3.700341716,LiAgF4
mp-24075,3.6657,-2.326348907,5.876819702,0.025209816,-86.52191939,-6.180137099,Ho(HO)3
mp-18744,1.2344,-3.166714216,6.236253287,0,-144.5849886,-7.229249428,Sr2ErMoO6
mp-972657,0,-0.602494172,12.96417278,0.038754687,-17.57181399,-4.392953498,SmBiAu2
mp-755414,0,-1.725277028,3.10563009,0.035642721,-94.54018075,-5.908761297,LiTiS2
mp-6496,0,-1.797054778,5.420245367,0,-128.8172283,-5.367384511,Ba2Na(CuO2)3
mp-864999,0,-0.876002525,12.73421194,0,-28.92566271,-7.231415678,Dy2IrRh
mp-23059,2.5354,-1.866696368,2.954064897,0,-30.36583556,-3.373981729,Rb2SnCl6
mp-12060,0,-0.857419314,8.623658561,0,-28.70415953,-5.740831906,Nd(AsPd)2
mp-8188,3.6247,-3.115490553,3.423675581,0,-28.35766397,-7.089415993,KScO2
mp-3887,2.3783,-0.659197044,3.47773021,0,-228.9177059,-4.769118874,Li3GaN2
mp-2423,0,-1.702922025,11.02617866,0,-18.16365881,-9.081829405,US
mp-770833,1.2701,-2.352606908,3.536015791,0.071259624,-200.9215415,-6.278798171,Li2SnBO4
mp-541368,2.6066,-1.839863595,6.709965396,0,-77.76534044,-5.981949265,Tl4V2O7
mp-27669,3.0922,-0.421405872,1.647284619,0.080686099,-189.5399506,-4.738498764,HS3N
mp-4394,2.6415,-2.979079371,6.725270991,0,-159.8818744,-7.267357929,Pr2Sn2O7
mp-558106,4.6716,-0.779946727,1.494107649,0.091249642,-697.2228973,-5.859015944,SnH58C16S4(N11O9)2
mp-29066,0,-0.353782522,4.315478888,0.001126608,-378.1614636,-5.908772869,Al3Fe2Si3
mp-776461,1.2513,-2.860403593,4.795286521,0.05324507,-208.2524656,-8.677186068,BaNb3NO7
mp-706910,5.4126,-2.078415209,2.23842486,0.018427732,-388.9574312,-6.077459863,MgB2H6O7
mp-582767,1.797,-1.950793908,4.687889889,0,-142.3245394,-5.930189143,La3CuGeS7
mp-4815,0,-1.078046899,7.679573251,0,-35.71842612,-7.143685224,Pr(SiRh)2
mp-743613,0.7816,-1.320402499,1.964025217,0.5835509,-99.06805321,-5.214108064,KMnH5(SO5)2
mp-976407,0,0.182285926,3.65666366,0.182285926,-9.1223946,-2.28059865,Li3Ac
mp-7976,3.0041,-2.985862229,6.27186856,0,-35.49622032,-8.87405508,RbGdO2
mp-640118,0,-0.280429977,7.120205161,0,-43.49809445,-2.718630903,CeZn3
mp-6336,3.3641,-2.567394397,3.57730069,0,-349.3659788,-6.238678193,Na3In(PO4)2
mp-571258,0,-0.905044957,6.834999518,0.061526894,-49.80346629,-3.831035868,Er6I7
mp-22444,0,-0.412699375,14.16267313,0.050192008,-127.5353001,-10.62794167,Ta4FeP
mp-764547,1.6303,-2.366022637,3.233552948,0.053782188,-312.4137109,-7.100311612,LiFe2(BO3)2
mp-558206,1.7174,-3.105643899,5.847675931,0,-307.3113518,-7.682783794,K9U6BiO24
mp-767208,0,-0.582924248,4.288501059,0.046647758,-189.3528531,-4.303473935,Sb17S27
mp-759289,4.6835,-2.514498976,3.613662493,0.072272861,-246.8467177,-6.856853269,LiBi(PO3)4
mp-391,0,-0.515136447,6.026339161,0,-27.23935497,-4.539892495,HoAl2
mp-567443,0,-0.722685319,6.137002982,0.038561191,-447.8046254,-6.489922107,Sc4Si7Ni12
mp-42054,2.542,-3.149857681,7.549469235,0.120160146,-76.83653711,-7.683653711,BaLaTaZnO6
mp-30359,0,-0.339791001,10.10302342,0,-11.15489842,-3.718299473,TmAg2
mp-13654,0.583,-0.822444819,9.029232197,0,-107.9137008,-5.395685041,Y3Sb4Au3
mp-21116,0,-0.575108835,7.612297714,0,-29.78810036,-5.957620072,CeCoGe3
mp-768476,1.3562,-1.384942532,2.224131944,0.059996745,-317.9227015,-4.967542211,Li3VS4
mp-850364,1.3059,-2.315103211,4.205348159,0.080266502,-140.9411165,-5.872546522,Fe4O3F5
mp-975390,0,0.224806804,1.719211953,0.224806804,-6.12418964,-1.53104741,RbCa3
mp-619791,1.639,-2.293531094,4.303678226,0,-182.1301222,-5.69156632,La5C2Cl9
mp-30282,0.1781,-1.51266859,4.935584695,0,-56.07431879,-4.005308485,La2I5
mp-755071,1.3262,-2.072449941,5.872141096,0.056953353,-37.3591553,-6.226525883,SnO2
mp-5905,4.1009,-3.714096171,4.451724088,0.029107938,-238.2744111,-8.509800396,Y2BeO4
mp-8365,0,-0.49917761,6.499320459,0,-67.34452429,-8.418065536,MnB
mp-21500,0,-0.37543179,9.250805508,0.00219262,-31.77055509,-3.177055509,Yb2InCu2
mp-768166,5.7623,-1.118713022,3.145217953,0,-153.966775,-4.811461718,Dy(ClO4)3
mp-3555,0,-0.994075101,8.966769294,0,-88.79184356,-7.399320297,LaSiIr
mp-27413,0,-0.48391573,8.119926797,0.022162763,-120.2386207,-9.24912467,Mo8P5
mp-6903,3.9111,-3.37675815,3.309897583,,-447.8412371,-7.464020618,Na2Ca4ZrNbSi4O17F
mp-27342,4.3666,-2.518563433,3.504833329,0,-165.951822,-4.880935941,Ge5F12
mp-773359,1.3453,-2.17601535,4.193673,0.050704721,-101.5258571,-6.345366068,Li2VCoO4
mp-722860,5.1275,-1.988063361,2.160399429,0.029211565,-91.7773204,-5.398665906,Na2MgH4(SO4)2
mp-541114,1.9779,-3.302215031,4.666435018,0,-214.7241835,-5.368104588,Sr2RhF7
mp-542038,5.098,-3.750999299,6.002832153,0.006025995,-549.7195008,-8.084110306,Er3Si3O10F
mp-631480,0,1.357185183,17.30809609,1.456739569,-27.49748279,-6.874370698,IrOs2Br
mp-676325,1.5821,-1.779486338,8.295919369,0.129478372,-129.7134643,-6.176831633,NbBi7O13
mp-753903,0.5058,-2.029949969,6.011560663,0.080746077,-146.1357981,-6.642536278,Bi2B2O7
mp-554542,5.4164,-3.44187934,2.909155983,0,-125.7024417,-6.285122085,Mg3B(OF)3
mp-867909,0,-0.617891803,8.934657863,0,-24.41271446,-6.103178615,ScCdRh2
mp-1179,0,-0.33077301,9.360104408,0,-35.48136436,-5.913560727,DyNi5
mp-21901,0,-0.331893576,8.151389023,0,-47.0933501,-3.924445842,SrIn4Ir
mp-675118,2.8603,-4.281186977,8.875446823,0.317668673,-276.6703102,-9.540355526,Y2Th8O19
mp-762266,0,-2.239593674,3.203241461,0.066687627,-46.59391119,-4.235810108,Li2Cu2F7
mp-772521,3.9931,-2.458903227,2.229322368,0.004053272,-170.8058962,-5.693529873,Li8TiO6
mp-961690,0,0.30453258,6.467599459,0.600131849,-16.97453273,-5.658177577,VGaNi
mp-19452,1.9544,-2.621364567,3.544674221,0,-151.566791,-7.217466239,V2Cd(P2O7)2
mp-773100,0.8308,-2.949165039,6.833220989,0.068973686,-116.9536485,-7.309603034,La2BiO5
mp-755610,2.4527,-3.108856647,5.824829466,0.063793783,-101.945961,-6.7963974,Ba6HfO8
mp-972411,0,0.093918538,8.18031089,0.093918538,-15.03555778,-3.758889445,Tb3Yb
mp-4304,0,-0.838821231,10.38343423,0.017352162,-29.03166375,-4.838610625,SmSnAu
mp-862945,0.0067,-1.084220808,5.967401736,0,-16.70657741,-4.176644353,NaPmTe2
mp-22935,2.4802,-1.967381861,3.946503513,0,-19.6942011,-3.28236685,CsBrF
mp-4720,0,-0.47967302,7.529755126,0,-56.51575698,-6.279528553,Si2Ni6B
mp-684502,0.34,-2.334810591,3.375185819,0.127647543,-406.1379549,-6.768965914,Sn2P3O10