id,band_gap,formation_energy_per_atom,density,e_above_hull,energy,energy_per_atom,pretty_formula
mp-864901,0,-0.686584479,13.1899613,0.022116669,-34.98758868,-4.373448585,LaAu3
mp-17188,0,-0.183559979,3.876929481,0,-217.2715,-4.723293479,U(Al10V)2
mp-8680,0,-0.70424724,11.99696715,0,-81.08053279,-8.108053279,Ce(BIr)2
mp-23948,3.0927,-0.261517464,2.362932642,0.007775735,-92.82509141,-2.578474761,Rb3MgH5
mp-17009,2.3646,-2.40724891,5.997628014,0,-167.5956654,-5.985559479,Ba3Te2O9
mp-18216,4.572,-3.447992899,3.576201274,0.005543877,-223.9255299,-7.46418433,BaCa2(SiO3)3
mp-27501,4.6925,-2.560848512,3.597695908,0,-39.77142645,-4.419047383,Cs2ThCl6
mp-753957,0,-3.866008102,7.0745948,0.055751678,-115.2166237,-8.862817204,Ce4ThO8
mp-2877,0,-0.592659426,6.572007425,0,-26.77761157,-5.355522314,Nd(CuSi)2
mp-31415,3.4545,-3.850448085,7.049997801,0,-197.150134,-8.961369728,La3TaO7
mp-16981,0,-3.639208029,6.193667062,0.064476732,-342.4489263,-8.153545863,Sm5Si3O13
mp-19188,1.586,-2.437524215,5.093167911,0,-86.22971552,-6.63305504,Ba3Mn2O8
mp-9956,0,-0.179930881,5.338343723,0,-65.93341601,-8.241677001,AlCr2C
mp-600059,5.7111,-3.27579988,1.954311629,0.013351136,-402.9943022,-7.901849062,SiO2
mp-850917,3.6639,-2.525636596,3.550889858,0.029180067,-190.5188592,-6.804244972,LiFePO4
mp-28274,4.5144,-3.590940357,5.328895788,0,-178.7401706,-5.257063842,Ba3In2F12
mp-756194,5.064,-3.337293895,4.545895538,0.087953522,-204.8124479,-8.192497916,Tm4(B2O5)3
mp-631472,0,0.993136907,6.581247413,1.151215843,-12.88012023,-4.29337341,InFeAs
mp-17691,0.9983,-0.480068667,4.988585778,0.022093505,-120.7158372,-4.311279901,Cu3SbS3
mp-755378,0,-1.18869554,5.521320293,0.02738296,-19.72415602,-4.931039005,NaPdO2
mp-865046,0,-0.807037918,13.87181938,0,-26.74714307,-6.686785768,LiPaPt2
mp-568144,0,-0.385332606,8.482261419,0,-68.73091072,-4.29568192,Dy5In3
mp-998298,3.1627,-2.77265916,4.333535007,0.027437709,-23.0297337,-4.60594674,CsSnF3
mp-774171,0,-2.611765487,2.892306654,0.08679698,-209.0383087,-6.967943623,Li3Mn2(SiO4)2
mp-510488,0,-1.746958884,6.651390918,0.095721973,-55.07269033,-6.884086291,SmMnSbO
mp-850402,0.0403,-2.459862019,3.123474495,0.059971334,-334.9230243,-7.442733873,Li5Mn8(BO3)8
mp-776283,1.4043,-2.073929331,3.733720136,0.072393496,-100.4472036,-6.277950226,Li4NbCo3O8
mp-626225,3.5137,-1.452890704,1.679442065,0.04528647,-270.6605646,-5.012232678,Ca(H8O5)2
mp-554116,3.2598,-2.904133871,6.69340497,0.001673446,-88.39301562,-4.91072309,BaPb2BrF5
mp-6076,4.3068,-3.398894174,3.419335509,0,-136.4155975,-7.578644308,Ca4LaB3O10
mp-769061,0,-1.641142213,7.199337832,0.425217669,-248.4059277,-6.536998098,Bi4(BO4)3
mp-722912,0,-0.475307279,11.10792639,0,-184.9351538,-6.60482692,Hf3Zn3C
mp-29531,1.429,-0.933386369,5.627651265,0,-153.2507794,-4.256966095,CsBi3S5
mp-21524,0,-0.681488883,5.04145029,0,-209.5109841,-5.819749559,SrNiN
mp-850403,3.3735,-2.178478251,2.535293983,0.027825734,-249.7637186,-6.244092966,LiFePH2O5
mp-720593,4.9628,-2.326297744,2.079511922,0.010776113,-609.0541382,-6.620153676,Na2B5H5O11
mp-27889,0,-1.390127052,3.776723278,0,-369.7330294,-6.846907951,K(V5S8)2
mp-1016850,0,-1.924738841,6.972701558,0.11198497,-31.57447136,-6.314894272,BaRhO3
mp-555121,3.5807,-2.469050545,2.513887399,0.047761569,-414.5247173,-4.934818063,MgAs2S2(OF3)4
mp-1007852,0,0.01471036,8.712102888,0.044597653,-29.73097245,-7.432743113,FeCo3
mp-757173,3.007,-1.79510775,4.758253247,0.07957587,-149.9571767,-5.767583717,Sb5O7F
mp-510503,0,-0.691091651,6.95089053,0,-82.76480681,-5.172800426,Nd5Sn3
mp-650328,0,-0.328419476,6.566737409,0,-291.8987649,-4.864979414,NbTe4
mp-6499,4.4008,-2.974602974,4.26623451,0,-164.1518253,-6.839659387,BaLiBO3
mp-757084,2.7857,-1.724041443,3.95820787,0.05512787,-127.6979172,-4.560639901,Rb3SbO3
mp-21161,0,-1.054201745,11.15973056,0.018566311,-71.78072275,-5.981726896,SmSnPt
mp-755941,3.3946,-3.802460688,7.897584334,0.013410017,-194.8329567,-8.856043488,Sm3TaO7
mp-675,0,-0.144506978,13.52058352,0,-69.80059027,-11.63343171,ZrW2
mp-23261,2.6663,-0.776405768,4.71736953,0,-118.4201393,-4.229290688,I2O5
mp-775269,1.8464,-2.373083678,3.214740307,0.046721147,-312.7243967,-7.107372653,LiFe2(BO3)2
mp-621960,0,-0.668123142,5.644989929,0.070492162,-164.2364324,-4.322011379,Sb4Pb4S11
mp-11498,0,-0.033481855,7.550402762,0,-4.03824784,-2.01912392,MgTl
mp-18195,4.5717,-3.859794141,7.674463972,0.023618116,-265.9499356,-8.310935486,Lu2SiO5
mp-13944,2.9373,-0.975171638,2.334211653,0,-249.8239627,-5.204665889,Li3AlN2
mp-560833,2.816,-2.077804116,6.889221031,0,-509.2739863,-6.365924829,B3Pb6ClO10
mp-20816,0,-0.737662615,7.312415137,0,-89.69745153,-8.969745153,Gd2AlGe2
mp-721463,4.7602,-2.37120849,2.163371666,0.053197672,-319.7213895,-6.14848826,K2P2H2O7
mp-762644,3.0831,-2.595007788,2.490868367,0.030913923,-144.3925079,-6.87583371,LiFeSiO4
mp-770734,3.0162,-2.433653461,3.491227614,0.042653847,-318.2300196,-6.119808069,Mg3(AsO4)2
mp-6109,2.9576,-3.497459165,3.416464163,0,-257.7459544,-8.054561073,CaTiSiO5
mp-11370,0,-0.427229804,9.005550381,0,-8.17372914,-4.08686457,ErIn
mp-558891,5.65,-3.277494343,2.237255996,0.011656673,-284.5275669,-7.903543525,SiO2
mp-35663,1.065,-0.656430578,4.882913114,0.072028487,-24.3524446,-3.478920657,Sr(InTe2)2
mp-867290,0,-1.312444975,7.965157882,0,-10.39476977,-5.197384885,TbTe
mp-771780,0.9998,-1.884817917,4.680139424,0.041129661,-362.3284517,-6.470150922,Li3Zn(Fe5O8)4
mp-556601,2.8421,-2.113597927,7.256263192,0,-183.9163588,-6.568441387,BiBPbO4
mp-769211,0.9667,-2.57610542,8.901522307,0,-149.1598784,-6.779994472,Tb2Pb2O7
mp-770677,0,-1.877466008,5.143486425,0.061399335,-164.168296,-5.863153429,Li4Co3Sb5O16
mp-1002063,1.8354,-0.753884481,3.391086814,0.067816513,-26.39977592,-4.399962653,SnS2
mp-769271,4.1974,-3.44927839,5.849591587,0,-240.4480806,-8.014936019,Sr4Ta2O9
mp-2233,0,-0.068846466,11.19724182,0.020405292,-35.71004142,-5.95167357,Th2Ag
mp-695965,5.0044,-2.174049423,2.368011119,0.039840689,-284.510614,-5.927304458,RbNa2P3(HO2)6
mp-6179,5.3235,-2.41917282,2.273292363,0.000189105,-80.64519203,-5.760370859,KLiSO4
mp-672289,2.0646,-0.26065807,5.11846873,0,-190.0109354,-6.786104836,Ge3N4
mp-983581,0,-0.934734362,11.06887863,0.011240402,-25.39883971,-6.349709928,Er2PdRh
mp-4725,0,-0.836016514,8.636626239,0,-28.54695445,-5.70939089,Nd(GePd)2
mp-561170,0,-2.696920903,6.502394983,0.001046131,-222.6897829,-7.422992763,Ba3ZrRu2O9
mp-1006390,0,-0.936376332,8.159722426,0,-159.4022715,-7.245557795,Ce4Si3Rh4
mp-34210,3.0308,-2.910643939,4.444218417,0.127208687,-92.09840305,-6.578457361,Al2ZnO4
mp-757466,3.7852,-2.653093498,4.026763522,0.065724972,-507.2875142,-6.503686079,Li3Si2BiO7
mp-542781,0,-0.107577212,5.590574396,0,-72.4253353,-1.905929876,Rb8Tl11
mp-504613,0,-0.615774891,5.669678457,0.045224573,-80.76709355,-6.21285335,Ce3(Si4Ni)2
mp-865167,0,-0.508194376,5.64680307,0,-10.65357338,-2.663393345,Ca2CdPb
mp-626378,3.5559,-1.614557086,3.437646688,0,-234.7492956,-5.868732391,As3HO6
mp-22756,1.2095,-1.608633723,4.726494143,0.004887322,-56.50637697,-4.708864748,K2PbO3
mp-761512,0,-1.268465571,5.249699744,0.045896933,-67.88330653,-5.656942211,Co3TeO8
mp-12956,0,-0.559306819,5.414621918,0,-109.7939094,-6.458465261,Yb(FeP3)4
mp-775485,2.3797,-2.099773672,7.406226304,0,-418.7216753,-6.344267807,Bi3PO7
mp-616185,4.4704,-1.985901911,2.791475094,0.006351911,-88.8904362,-3.174658436,Rb2ZnCl4
mp-866482,1.2115,-0.03727309,3.481382806,0.023012272,-102.3240544,-3.197626699,CsSi
mp-8921,2.9917,-0.628577533,4.42716765,0,-149.4690716,-6.498655285,Cd4P6SN12
mp-1018697,0,-0.553044057,7.503401845,0,-33.74779046,-5.624631743,EuCdSn
mp-568909,4.9977,-2.290448288,2.779664667,0.000818053,-97.77462796,-3.491950999,Cs2MgCl4
mp-571,0,-0.347428463,6.520886401,0.050537917,-14.37024076,-7.18512038,TiNi
mp-972997,0,-0.316123357,8.942979743,2.56E-05,-12.23943512,-3.05985878,HoErCd2
mp-774976,0.0446,-2.482383176,3.176369258,0.004996276,-343.8528391,-7.163600815,Li8Mn5Fe3(BO3)8
mp-19456,0,-2.718889614,4.284192329,0.022413843,-108.9608038,-7.78291456,AlV2O4
mp-560010,3.6746,-2.533838721,3.56377371,0,-335.9050606,-6.459712703,Rb2Ga2B2O7
mp-18622,0,-1.073023587,11.52043999,0.0020556,-206.244063,-9.374730138,Hf7P4
mp-769485,0.5292,-2.318959599,2.733959192,0.011697804,-328.8115665,-6.850240968,Na2MnPCO7
mp-567252,0.0849,-0.562346921,4.834589543,0.000782638,-330.9200817,-5.170626276,Nb3Se12I
mp-774303,2.6116,-2.510489168,3.189430725,0.001084351,-522.1818107,-7.252525149,Li6Mn5Fe(BO3)6
mp-5544,0,-0.119239513,5.587863819,0.029349766,-81.37515078,-6.259626983,U(Al2Cr)4
mp-12765,0,-0.171728416,6.875818614,0.016836968,-33.04954096,-11.01651365,GdC2
mp-23054,1.0679,-1.598705081,6.11454152,0,-51.81883488,-5.181883488,NaBiO3
mp-11613,0.1805,-2.971974406,4.42974809,0.039535888,-168.0954263,-7.003976094,Ba2CuSi2O7
mp-699284,2.632,-0.618521167,1.503240123,0,-139.8579105,-4.370559704,Li2HN
mp-18583,0,-0.71189769,5.285481301,0,-206.7144417,-6.890481389,Ti4Si7Ni4
mp-31483,0.0501,-0.180675688,4.021524704,0,-90.85292131,-2.523692259,Na5TlSn3
mp-762517,1.1269,-2.423663149,4.342260931,0.04751204,-190.2738068,-6.795493098,Li4Ti3Fe3(TeO8)2
mp-558415,2.2349,-1.108876949,2.252113488,0,-227.6648561,-4.378170309,K3CuP2S7
mp-1008632,0,-0.454237106,5.76146125,0.021071746,-28.74659558,-9.582198527,V2C
mp-761342,0,-1.641070313,5.144363752,0.102053979,-156.3564066,-5.584157378,Li4Co2Cu3Sb3O16
mp-27385,2.3193,-1.533743994,3.215309326,0,-35.39030273,-2.949191894,KTlCl4
mp-13018,0,-0.10568839,11.53787539,0.040199216,-44.37690137,-7.396150228,UCo4Sn
mp-758004,2.0838,-2.985435929,3.956742547,0.004635331,-482.0050155,-8.310431301,K3Nb7O19
mp-15437,5.1106,-2.721909092,2.46928364,0,-453.1384997,-7.080289058,MgP4O11
mp-12263,2.0692,-2.028993975,5.663814234,0.004083346,-46.07551733,-3.839626444,LiAuF4
mp-850370,1.6435,-2.422716548,2.748404746,0.077457229,-388.9291639,-6.70567524,Li6Mn2B4SO16
mp-1009639,1.5791,-1.354618979,5.969068664,0.11932146,-15.4453916,-7.7226958,PrN
mp-642844,4.7633,-1.725579335,3.501906635,0,-99.37466135,-4.968733068,BaH5BrO3
mp-693753,4.8172,-3.226296917,3.139527575,0,-618.3934082,-6.721667481,BaNa5Ca7P6(O8F)3
mp-771295,2.9162,-2.456964968,3.50335205,0.073963804,-347.8874699,-7.247655622,LiMnBO3
mp-10601,0,-0.482318096,5.007369962,0,-34.06988516,-6.813977032,Y3GaC
mp-1018721,4.6693,-3.989088883,10.3622787,0.054666998,-60.74864968,-10.12477495,HfO2
mp-866691,0,-0.875707221,5.931354463,0,-223.930239,-6.997819969,La2PC
mp-58,0,0.012486402,0.883169025,0.012486402,-1.09784792,-1.09784792,K
mp-765729,0,-1.356639768,5.485419893,0.09749893,-98.13486898,-5.451937166,Co2O3F
mp-757587,2.6543,-2.362749238,8.623622297,0.036489959,-523.7036958,-6.546296198,Dy5Bi11O24
mp-31498,0,-0.763509962,8.705563229,0,-19.01688497,-4.754221243,BaPt
mp-1019747,4.1202,-3.225874943,2.89743552,0.005419561,-249.6668108,-6.93518919,K2Ca3Si3O10
mp-770210,3.6651,-3.729144932,4.68943346,0.071139245,-231.7869536,-8.278105484,CaY2O4
mp-555173,2.2611,-2.837990282,5.331743157,0.00563121,-123.0337555,-8.788125391,UCO5
mp-3019,0.004,-0.289241961,8.201271877,0.005316363,-50.43675041,-3.152296901,Tl4SnTe3
mp-677042,4.4486,-3.143353528,3.153037066,0.011199106,-306.4067379,-7.473335071,Na7Zr4Si5PO24
mp-3647,2.9608,-1.360100881,2.834726454,0,-69.23152759,-4.326970474,LiGaS2
mp-675964,0,-0.519529658,3.269482161,0.02338284,-65.56380323,-3.642433513,Li5GeAs3
mp-689979,1.3134,-2.43012604,2.619417717,0.160612665,-149.54137,-6.797334999,LiFeP2O7
mp-557023,0,-3.178034166,3.337633773,0,-51.45791864,-6.43223983,NbVF6
mp-695214,2.3787,-3.308559876,5.965210967,0.020290189,-461.579306,-7.692988433,Ba9La3Mg5Nb7O36
mp-765476,4.0053,-4.002183875,5.528621097,0.000603647,-359.3314989,-8.983287472,Y13Ho3O24
mp-7841,1.8799,-1.094191258,4.621272172,0,-59.20653482,-4.229038201,Ba(GaSe2)2
mp-17470,0.757,-0.824148582,5.119824821,0,-159.2051204,-4.422364454,Ba3(SnAs2)2
mp-673151,0,-1.860215843,3.743973821,0.037602423,-237.3752709,-6.246717655,Cu4(PO4)3
mp-560794,2.7981,-2.763294054,4.673539725,0.005272109,-700.4863399,-7.296732707,BaNbTePO8
mp-722988,3.5409,-1.527317239,1.984571651,0.034874479,-618.7107729,-5.62464339,TeP4H26(NO5)4
mp-758599,0,-2.326456224,6.674841193,0.016721808,-433.19968,-8.173578868,Sr5(ReO3)12
mp-7603,4.3715,-3.550512942,2.886519894,0,-104.3819799,-5.798998882,Li2TiF6
mp-3771,3.4987,-3.388055306,3.780007017,0,-78.24196883,-7.824196883,MgTiO3
mp-744001,2.3057,-1.203576748,1.803157495,0.090599235,-415.9980145,-5.942828779,Fe2H13C6NCl2O11
mp-558804,4.5981,-2.665896219,3.357642587,0,-348.517508,-7.260781418,CsGeB3O7
mp-778734,1.6764,-2.530903525,3.142096618,0.054997717,-267.7665976,-6.694164941,Li6Fe3Sn(PO4)6
mp-505088,0.4869,-0.335160312,5.575840798,0,-209.7025664,-4.368803468,NbTe4I
mp-973793,1.7533,-0.679481676,2.144964404,6.61E-05,-84.26504685,-3.830229402,Li8SeN2
mp-558063,0.6823,-0.872832267,5.288859405,0.000174199,-67.69289748,-4.230806093,KCu(BiS2)2
mp-554610,5.7573,-4.171632208,3.947990702,0,-191.8152555,-6.85054484,PrZr2F11
mp-21228,1.1989,-2.153426181,5.54613699,0.000954914,-38.6141998,-4.826774975,SrCuSeF
mp-864800,0,-0.91548102,12.25758739,0,-15.17136338,-3.792840845,Yb2PdAu
mp-505598,0,-0.807776072,7.494223265,0,-96.26913816,-6.876367011,Zr(Ni2P)2
mp-766540,2.3649,-1.622337761,1.945452025,0,-175.9509278,-4.887525772,Li4TiS4
mp-764102,0.9315,-2.562161531,2.910624503,0.06592899,-200.543917,-6.684797234,Li3Fe2(SiO4)2
mp-707958,4.9035,-1.168274849,1.559395078,0.014193542,-260.988216,-6.214005143,PH9C2N4O5
mp-782657,0.4851,-2.357929779,3.508432495,0.085870435,-254.8954357,-7.080428768,Mn3VTe2(PO4)6
mp-20497,0,-0.405045564,8.531581087,0,-35.34355836,-4.417944795,SrIn2Ir
mp-28874,0.9395,-0.140246005,6.426466354,0.002217531,-77.22901902,-3.217875792,Hg2P3Br
mp-8348,4.2878,-2.646691892,5.019430217,0,-36.19113133,-4.523891416,TlSbF6
mp-567769,0,-0.797399233,5.768876286,0,-27.19620919,-5.439241838,Ca(SiPd)2
mp-12525,1.6835,-2.761249514,6.125797026,0.010566521,-70.69092286,-7.069092286,Sr2LiReO6
mp-780866,2.0062,-2.602052992,2.910637417,0.050786126,-340.0872438,-7.085150913,LiFe2Si2O7
mp-561472,1.4468,-1.908239257,6.254724085,0,-133.898583,-4.782092251,Hg2PO3F
mp-698695,2.8711,-2.545330646,3.46426752,0,-244.6899523,-6.991141493,CaFe2Sb2(PO4)6
mp-20970,0,-0.127370018,4.514976878,0.083052843,-30.01421412,-5.00236902,NaMnSb
mp-14793,0,-0.616924594,6.553517807,0,-34.31702872,-4.28962859,Mg2SiPt
mp-556708,2.2712,-2.934770218,3.649961871,0.001520025,-976.6400334,-7.630000261,KUP3O11
mp-559951,2.304,-2.854959962,8.384335869,0.008471906,-222.3972674,-7.94275955,SrTa2Bi2O9
mp-675430,1.5192,-1.396571793,6.703010655,0.082816759,-134.2093455,-5.161897905,Sm4Ag2Se7
mp-723109,3.3193,-1.261407481,3.202186743,0,-711.6384039,-4.808367594,BeH14(I2O9)2
mp-569815,0.4821,-0.546041426,6.121950738,0,-174.0382218,-7.251592576,Si2Ru
mp-674328,1.3922,-0.98643673,4.168547079,0.013174108,-55.07854951,-3.934182108,Zn(InS2)2
mp-775439,0.845,-2.572726615,2.646268679,0.097558561,-403.6956946,-7.208851688,Li2Cr3P5O18
mp-29898,1.1305,-0.463774174,9.177070578,0,-64.79121606,-3.599512003,Tl2Au4S3
mp-17092,0,-0.851246311,7.535038964,0,-108.4428923,-6.024605127,ScSnPd
mp-650619,0.6093,-0.619837491,6.11168572,0.002685479,-85.48430245,-3.885650111,Cs3Bi7Se12
mp-781712,2.4072,-1.696605881,3.795321733,0.039273978,-94.48824114,-4.724412057,Na2SnO2
mp-773980,1.1818,-1.162516663,3.933552325,0.03311601,-95.91164955,-3.197054985,Bi3(TeCl5)2
mp-636105,0,-0.094483442,7.050564255,0.038239338,-160.9255023,-6.189442397,MnGa
mp-12442,1.9913,-1.836355533,4.374116486,0,-27.59810102,-3.449762628,KAuF6
mp-554737,1.7788,-1.790975595,5.324510152,0,-70.59248041,-3.52962402,CsAu2F7
mp-18351,0.9348,-0.795422354,3.798507786,0,-172.3825243,-4.788403452,Sr3(GeP2)2
mp-760489,5.0658,-1.070631025,1.537884041,0.017124128,-103.9196543,-5.195982714,PH6NO2
mp-976311,0,-0.367029925,11.45061314,0,-29.14563092,-7.28640773,HoErRu2
mp-568450,3.501,-0.419185106,2.673731111,0,-98.26054236,-3.509305084,SrAlH5
mp-558992,0.4082,-1.659857108,7.252996634,0,-94.77847382,-5.575204342,In7GeIrO8
mp-552488,1.5468,-2.209470486,6.758638481,0,-51.1593607,-6.394920088,LaCuSeO
mp-567771,3.2694,-1.326164869,3.778973142,0,-117.9887472,-7.865916479,Ba(Si3N4)2
mp-850982,0.1859,-2.086850387,4.38232673,0.086007361,-119.268583,-4.969524291,LiCo3(OF3)2
mp-570311,0.5377,-0.684753638,3.318579479,0,-227.6549907,-3.449318041,K4Sr2SnAs4
mp-772771,4.562,-3.389327235,5.238614268,0.022935275,-415.8138689,-8.316277377,La4(B2O5)3
mp-556837,2.7409,-1.201902053,2.248149375,0,-200.5523239,-4.178173415,AgAs(S8F3)2
mp-30002,3.8334,-1.452312264,4.569537977,0,-135.6150219,-5.215962379,Sc(IO3)3
mp-976182,0,-0.34596219,10.34723783,0.003654885,-15.46883975,-3.867209938,PrErTl2
mp-4071,0,-0.585937945,8.361676564,0,-72.98606879,-6.635097163,Er2(NiB2)3
mp-1009238,0,0.027418297,13.73576303,0.027418297,-22.1931499,-7.397716633,Hf2Tl
mp-849952,1.6864,-2.334758524,3.200779085,0.068796032,-302.5526276,-7.203633991,LiFe4(BO3)4
mp-2863,0,-0.209212341,8.063535263,0.000248522,-9.51537566,-2.378843915,CeCd3
mp-600024,5.75,-3.270663152,1.637363779,0.018487864,-758.0843841,-7.896712334,SiO2
mp-622278,2.7395,-2.093842898,4.945180304,0,-320.9045695,-6.685511864,TlV2SbO8
mp-19796,0.3258,-2.889800656,6.525114305,,-128.9427994,-8.058924959,Ba2Nb5O9
mp-755376,3.033,-3.058477675,7.459794527,0.001150948,-195.4860832,-7.240225305,Er2TeO6
mp-677431,1.57,-3.00912732,4.452425913,0.029605536,-309.670663,-7.741766575,Na3SrTiNb3O12
mp-569674,0,-0.763294256,7.808635527,0,-32.25873498,-6.451746996,La(CoAs)2
mp-11841,0,-0.068429718,8.652610759,0.068493959,-8.89985624,-4.44992812,CeAg
mp-540469,2.9046,-2.380789688,3.559046508,0.05021388,-155.0910812,-6.743090488,Li2Co3(P2O7)2
mp-634,1.7039,-0.456144422,6.965131592,0.00802335,-14.04119349,-2.340198915,HgS
mp-1018954,0,-1.276616548,9.634520956,0,-50.28123924,-8.38020654,PuSe2
mp-760791,0.1013,-2.169912464,3.528389667,0.051871152,-217.3908566,-4.180593396,Li4Cu5F17
mp-850251,1.7662,-3.310018829,3.539492252,0.081926075,-253.3534027,-8.445113424,Na2Ti9O19
mp-989577,4.2919,-2.66500238,6.788693137,0,-44.84586424,-4.484586424,LiTl2GaF6
mp-3938,0,-1.425850085,4.860704746,0,-43.42961583,-7.238269305,ZrSiS
mp-540332,0,-2.870170701,3.066681754,0,-271.9310912,-7.99797327,Nb2(PO4)3
mp-20965,0,-0.331919363,8.856416218,0,-16.90863535,-5.636211783,GdCd2
mp-662919,1.3688,-1.746481715,3.783249187,0.269739337,-321.895025,-4.023687812,SbTe(SeF3)2
mp-979945,0,0.44987949,7.603382102,0.44987949,-11.86620096,-2.96655024,Yb3V
mp-757541,3.139,-2.471250501,5.44218295,0.092284842,-545.2313882,-6.49084986,LiSiBiO4
mp-4289,0,-0.926392133,7.721408747,0,-153.2642584,-6.386010768,Er2Si3Rh
mp-22255,1.1743,-0.692442162,4.922263058,0,-25.64597943,-3.205747429,RbInTe2
mp-1018679,0,-1.149418578,7.918586823,0.038348221,-28.67705979,-4.779509965,DyTe2
mp-561134,0.6424,-0.498393243,5.290262117,0.088892957,-55.23860369,-3.452412731,Sn2SbS2I3
mp-541330,0,-2.494512153,5.974921517,0.011034752,-162.6545467,-6.255944103,Sr2SmGaCu2O7
mp-30591,0,-0.324884341,5.231753298,0,-13.22417238,-3.306043095,Li2CuSn
mp-769870,1.1003,-1.971726233,4.984544477,0.040656728,-168.2800919,-6.010003282,Li4Fe3Sb5O16
mp-13497,0,-0.025445927,7.024613734,0.025055803,-10.81549513,-3.605165043,Er2Mg
mp-13009,0,-0.381659104,7.498094666,0.047858374,-60.25917421,-6.025917421,SmCrGe3
mp-1761,0,-0.827972743,17.49126384,0,-49.47488166,-8.24581361,LuIr2
mp-631389,0,0.790521275,7.38376499,1.930766445,-17.73056014,-4.432640035,SiWCl2
mp-770390,1.5539,-1.758798534,2.406003861,0.013543435,-490.6853215,-6.456385809,Li2Cr4O13
mp-28281,1.8097,-0.474731186,3.609892717,0,-117.0657842,-3.658305755,H4I3N
mp-973300,0,-0.231844227,9.980666545,0.103406025,-35.07130404,-4.383913005,Lu3Ga
mp-2970,2.8102,-2.0253654,2.99172011,0,-90.22060335,-5.012255742,Na4GeO4
mp-604429,1.891,-1.832979496,3.027520999,0,-151.7134308,-5.835131952,NaFe3H6(SO7)2
mp-20918,0,-0.663610326,6.668028866,0,-39.76137338,-6.626895563,ErTiSi
mp-4604,3.0112,-0.912932664,2.331248056,0,-521.6007568,-5.433341217,Li7VN4
mp-4439,0,-0.792719361,6.539897061,0,-31.15442555,-6.23088511,Pr(SiNi)2
mp-989632,0.0132,-0.609345402,7.264298971,0.02050106,-172.1897041,-8.609485206,LaOsN3