id,band_gap,formation_energy_per_atom,density,e_above_hull,energy,energy_per_atom,pretty_formula
mp-610517,0.9133,-0.25200822076388896,6.67481171089593,0.02417492416666711,-39.57629057,-3.2980242141666665,Ag2S
mp-14722,6.9766,-3.849961560422964,3.4866549836570404,0.0,-399.36187948,-5.546692770555556,NaSrAlF6
mp-686677,3.94,-1.909946505785012,2.963400068377661,0.004993368333323645,-166.40799361,-5.5469331203333345,Rb2PH3SeO8
mp-4056,3.458,-3.793305262142857,3.818976690724376,0.0,-232.80079862,-8.31431423642857,CaSc2O4
mp-769658,0.8649,-2.631068813541667,3.927296138060128,0.04319502562500066,-221.92163188,-6.93505099625,Li2TiFeO4
mp-557890,3.0068,-4.01987837943182,9.343530578033262,0.026656233749999814,-205.97507919,-9.362503599545457,Er2Hf2O7
mp-25568,,,,,,,
mp-782668,1.581,-2.7923931285993837,2.720859541940135,0.02621337566176507,-440.55890604,-6.478807441764706,Li4VP2(O4F)2
mp-9579,0.5899000000000001,-0.7442673261718751,5.885180564302705,0.011183073749999828,-32.15224202,-4.0190302525,AlTlSe2
mp-761815,,,,,,,
mp-19269,2.3395,-3.1538209142499998,6.732018301692637,0.0,-163.65716663,-8.1828583315,NdCrO3
mp-680204,5.6051,-3.265126410378787,1.9464083651335244,0.012871258787878759,-521.62221812,-7.903366941212122,SiO2
mp-24925,,,,,,,
mp-669345,2.7788,-1.4962295958490908,2.8675718932052146,0.00034217079545717516,-170.97705022,-3.885842050454545,TaTeCl9
mp-776908,,,,,,,
mp-8298,1.2193,-1.637914523579932,3.7926217122043466,0.0,-33.29556387,-4.7565091242857145,Sr4P2O
mp-559390,4.1904,-3.4559978957142854,2.839015405570691,0.008775708571438834,-303.99156924,-7.237894505714285,CaAl2O4
mp-20072,2.5506,-2.6964175318749994,5.324352865146112,0.0,-28.31221484,-7.07805371,LaCuO2
mp-18594,2.1131,-0.9193214894330356,2.9329164647704755,0.0,-99.65075904,-3.55895568,K3AsSe3
mp-766854,,,,,,,
mp-540314,2.0461,-2.464236646689561,2.9297445668972166,0.04498638942308997,-368.888881,-7.094016942307693,Fe(PO3)3
mp-7339,4.5318,-3.39153091975,4.225502416364791,0.022028894333332442,-148.14804996,-7.407402498000001,BaSiO3
mp-1009894,0.4970999999999997,-0.19172170000000044,5.150549503455082,0.6132600900000007,-18.15791385,-9.078956925,ZrC
mp-9637,0.2862000000000001,-3.2953827162454545,4.035847080047328,0.0,-272.48907203,-6.192933455227273,K3NpO2F5
mp-570453,2.2061,-1.6265165800945447,4.955037461541915,0.0,-145.68656575,-6.622116625,Ba4W(N2Cl)2
mp-771622,,,,,,,
mp-570803,0.8347000000000002,-1.2166932406696431,5.087306118858509,0.0,-60.50146158,-4.32153297,Ba2Ge(TeSe)2
mp-19477,3.9073,-3.036505904266563,2.5946406411940544,0.13837662724137978,-443.08323779,-7.639366168793104,Mn2Al4Si5O18
mp-1346,1.9307,-0.8074542223214282,2.5960680604276702,0.0,-99.94837775,-7.139169839285715,B6O
mp-23474,0.5369000000000002,-0.6743379393287038,6.449788571058571,0.0,-75.85153797,-4.213974331666666,AgBi3S5
mp-743627,,,,,,,
mp-752458,4.0053,-3.994682675333333,6.102179943574059,4.927959375145008e-05,-353.98474587,-8.849618646749999,Dy3Y5O12
mp-772535,1.7069999999999999,-3.01927108123227,4.176762889434428,0.011997552218904415,-415.23858966,-8.834863609787234,LiNb13O33
mp-18043,4.4903,-3.3502704378385406,4.013967544573381,0.0,-246.64240758,-7.707575236875,Sr6YSc(BO3)6
mp-566874,,,,,,,
mp-764529,,,,,,,
mp-504769,0.6641,-0.72941886943,2.0109923167169956,0.0,-84.47840761,-6.0341719721428575,N2O5
mp-622619,1.6074,-2.5764851517592606,6.0551532768552025,0.008417210555560217,-280.74661766,-7.798517157222222,UVAgO6
mp-31008,2.4679,-2.2728698385887096,2.4611885066608408,0.0,-318.01208296,-5.129227144516129,Na14Al4O13
mp-9564,1.2729,-0.9449196483333336,3.332020417323303,0.0,-19.23486893,-3.846973786,Ca(MgAs)2
mp-23299,4.7794,-2.17389814038,3.1459375536072507,0.06130446000000012,-6.58218133,-3.291090665,RbCl
mp-777059,,,,,,,
mp-4350,3.5148,-2.351159633091517,4.925372989949406,0.0,-365.9478909,-6.5347837660714285,La2(SeO3)3
mp-1002164,1.6635,0.434762535,5.7608970079710495,0.434762535,-12.97475638,-6.48737819,GeC
mp-34330,4.3565999999999985,-3.3329922390476185,3.482055561955567,0.05054167428571432,-98.80331025,-7.0573793035714285,MgAl2O4
mp-5223,3.2382,-3.6996273712500014,7.235658676293356,0.012026519149998194,-196.22732533,-9.8113662665,GdAlO3
mp-542832,3.175,-3.6573890944531247,7.932363249296747,0.0,-120.56992930000001,-7.53562058125,Ba3Lu4O9
mp-1019550,3.3941,-0.8156198961899994,4.849649940355885,0.0,-110.09739382,-6.88108711375,BeGeN2
mp-559520,0.9885000000000006,-2.053211665535714,5.3867617834123935,0.005209405499997821,-244.50606230000002,-6.1126515575,In2Ag3(PO4)3
mp-780193,2.5296000000000003,-2.4981106582950683,2.942441156495521,1.8118257987723263,-395.89346537,-7.0695261673214285,LiCr(PO3)3
mp-540900,0.7986,-2.221048778571429,4.766561888221784,0.012450192619047229,-306.39162929,-7.295038792619048,B2PdO4
mp-676329,1.6459,-1.1778320526250003,4.507084237985933,0.0,-168.42932355,-5.614310785,Rb5Re3S7
mp-757816,0.28600000000000003,-2.559032001441799,2.555549449177747,0.11826561213491793,-261.34786598,-7.2596629438888876,LiNb(PO3)4
mp-757159,3.2011,-2.457879558452381,5.0512834516600655,0.09746423952381013,-181.62619469,-6.486649810357143,LiSiBiO4
mp-540632,3.4752,-2.497465918482143,4.5729556494156185,0.0,-199.73271664,-7.133311308571429,RbTa(GeO3)3
mp-27069,4.0261,-2.526153509410714,4.44826272692128,0.03502058037499633,-524.84205887,-6.560525735874998,Li3Bi2(PO4)3
mp-14435,1.8319,-0.9949759601473211,3.069629101228002,0.0,-50.80254925,-3.628753517857143,K3GeSe3
mp-25664,,,,,,,
mp-776806,0.9909999999999995,-2.245873179523809,4.580057707040768,0.02189430298470274,-185.84533753,-6.637333483214285,Li4V3Fe3(SnO8)2
mp-558347,4.2286,-2.8958480337205885,3.0750852999271343,0.00200166156863002,-220.14228875,-6.4747731985294115,K4Ba(SiO3)3
mp-780403,1.2691,-0.8949217762499995,4.07405981101869,0.05053634750000047,-219.76563688,-4.578450768333333,NaCu3O2
mp-862947,0.4743,-0.8662726699999999,7.562824099398488,0.0,-14.46333026,-3.615832565,Ba2BiAu
mp-754495,1.6507999999999998,-1.932151732876668,4.860292621688951,0.057180439999987336,-112.38359158,-9.365299298333333,NbNO
mp-25703,,,,,,,
mp-774012,,,,,,,
mp-27508,2.0898000000000003,-1.076309007238,2.651527405729753,0.06954440287500363,-35.079879,-3.5079879000000003,Li6Br3N
mp-696291,3.3139999999999996,-1.2181594599493328,2.4291466290065142,0.0,-164.72213455,-5.490737818333333,ZnH4(NO4)2
mp-780936,0.2493,-2.9649995513483813,2.8602654224902415,0.049545636128574884,-205.94051547,-5.884014727714286,Li5V6O5F19
mp-14030,4.6025,-3.2006684033499986,2.6583271573076988,0.0,-748.96591826,-7.4896591826,Na2LiY(Si2O5)3
mp-777503,,,,,,,
mp-10927,3.7944,-0.7599701310966671,2.411313185851492,0.032446375850612164,-96.62747184,-6.901962274285713,SrC2(SN)2
mp-775867,1.5772999999999997,-2.344508980186012,3.861727935018988,0.06484308290178298,-411.48485988,-6.429450935625,LiSbPO5
mp-755018,2.3999,-2.9907691582499987,7.622331464650197,0.052561513000018316,-40.52915355,-8.10583071,RbTaO3
mp-705523,,,,,,,
mp-782821,0.8979000000000001,-2.5699746276651845,3.4211592014497163,0.25678220249999306,-170.51416095,-6.315339294444443,LiV2(OF)3
mp-31859,,,,,,,
mp-776220,2.2216,-2.4696748988686648,10.537604363639561,0.07681843108333553,-314.48012327,-10.482670775666666,Hf2N2O
mp-28189,1.3206,-0.9924946705737504,2.259310043747332,0.0,-59.34923478,-3.29717971,FeSeCl7
mp-3615,5.4227,-3.172436959250001,4.341150802081468,0.012010580187499896,-164.00935508,-8.200467754,Nd(BO2)3
mp-3735,2.8647000000000005,-3.440738008511904,5.793523123046602,0.02695682291666301,-228.46599211,-9.519416337916667,GdPO4
mp-768024,,,,,,,
mp-625318,5.0102,-2.107948112801429,2.3890454696374115,0.02547361142856808,-81.91483802,-5.851059858571429,Al(HO)3
mp-781789,2.6893,-2.6626950644235583,3.4877684034924004,0.003665750263159849,-523.10029302,-6.88289859236842,Li4NbIn3(PO4)6
mp-555104,4.3422,-3.1905037911858973,5.680845706198267,0.0,-385.25713784,-7.408791112307693,Na2Er2B2O7
mp-761151,0.3685999999999998,-3.632940231985294,5.759799188110058,0.08382487761764779,-159.74850788,-9.396971051764707,Zr6O11
mp-608555,2.5894,-1.9113914861580077,3.26938352914966,0.0,-30.50872896,-3.389858773333333,Cs2SnCl6
mp-566379,,,,,,,
mp-557871,1.7915,-1.5125761464285703,6.039480795480973,0.0,-80.08199836,-5.72014274,CuAsPbO4
mp-776150,0.3645000000000001,-2.122239894416667,5.052178524635694,0.06021110187500067,-65.02638808,-6.5026388079999995,ScAgO3
mp-8830,1.252000000000001,-1.4806356943749996,5.81451266745432,0.0,-23.06460628,-5.76615157,NaRhO2
mp-758720,1.5711,-2.7868404200394443,3.1853453248179515,0.09252863333333304,-55.60920678,-4.634100565,Li5CuF6
mp-769687,,,,,,,
mp-765273,,,,,,,
mp-560235,4.5767000000000015,-3.1967193277479304,3.0333848813421755,0.0,-413.33944209,-7.126542105,K9Sm3Si12(O16F)2
mp-971683,2.1936000000000004,0.1077082043542857,2.336940835285644,0.1077082043542834,-176.20872234,-8.39089154,C3N4
mp-17501,0.4310000000000001,-1.4010221007142856,5.358173666700877,0.0,-147.85706986,-5.280609637857141,Ba(ScTe2)2
mp-760415,2.1224,-1.1750150371875008,2.5165238025626673,0.0052791262499996,-33.14784791,-4.14348098875,Li3SbS4
mp-769771,,,,,,,
mp-29519,0.3003,-0.5527265971666667,4.778720795062496,0.0002760704166648864,-55.18670532,-2.299446055,KAuI4
mp-30320,6.7979,-3.9167489762071424,5.496038459053553,0.0,-181.83084938,-6.4939589064285705,RbHfF5
mp-12640,2.8568,-3.46892126075,6.6301883222738125,0.0,-78.70923896,-7.870923895999999,Ba2DyNbO6
mp-779980,1.9985,-2.540390910951998,10.387131395651895,0.0061024190000011904,-422.13547151,-10.55338678775,Hf2N2O
mp-624486,2.6279,-2.106101627927778,4.048102586039551,0.03743808488889222,-539.20884841,-5.991209426777778,K2Sn(GeO3)3
mp-867677,0.8253000000000004,-1.5381775233925,3.7183435169842887,0.0,-102.2806916,-3.1962716125,LiAgF6
mp-754478,3.4356,-3.8873523158333327,7.1021286935982975,0.039557947500000516,-58.81166117,-9.801943528333334,HfZrO4
mp-32880,0.448,-0.2494231899999999,5.134752632807492,0.0007447950000001312,-6.23497959,-3.117489795,CuBr
mp-634062,2.49,-1.11642216262375,3.8802252861798094,0.002927077499999431,-52.23056028,-3.2644100175,RbCdH2I3O
mp-774412,3.3285,-2.4303126675807807,2.2111154054309234,1.8796237894866132,-392.09677789,-7.001728176607143,LiCr(PO3)3
mp-763358,0.8358000000000001,-2.586473791214999,4.108481797939079,0.06408107958333797,-68.17239006,-5.681032505,Fe4OF7
mp-764310,,,,,,,
mp-755346,5.184900000000002,-2.3602631321666663,2.1846926463883882,0.053140950249999534,-113.61859621,-5.6809298104999995,Li5BO4
mp-764853,,,,,,,
mp-27820,2.5117,-0.1396309560754896,0.891215506837035,0.03199859680480088,-652.21461887,-4.7956957269852944,B7H10
mp-570097,1.0057999999999998,-0.8300468057823132,2.3467495648023866,0.0,-25.96207203,-3.708867432857143,Sr(Li2P)2
mp-546757,3.7957,-2.43107040383104,4.185147961590844,0.0,-65.37625752,-5.943296138181817,Sn3PO4F3
mp-3324,1.6876000000000002,-2.7582650936111115,5.399428994146106,0.0,-148.98656743,-8.277031523888889,Nb2SnO6
mp-1009813,0.4112999999999998,0.14689740750000002,4.36124749150555,0.14689740750000002,-9.12189082,-4.56094541,SiSn
mp-777807,2.039,-3.1148911153791667,2.6967404616181487,0.1079418964062544,-345.92065175,-5.40501018359375,Li2VF5
mp-6254,2.9913,-3.46100472775,6.576068829510056,0.0,-78.65765289,-7.865765289,Ba2TbNbO6
mp-753268,0.4071,-2.858028257301333,2.888248820811069,0.05274408600000236,-69.78756872,-4.652504581333333,Li6CuF8
mp-565732,,,,,,,
mp-680722,1.9593000000000005,-1.6256303318727034,7.648357635836457,0.0,-397.26661795,-5.368467810135135,As2Pb14Cl4O17
mp-18255,5.2951,-2.9286340713955026,3.4994271684039613,0.0,-262.02951781,-7.278597716944446,RbSm(PO3)4
mp-764910,,,,,,,
mp-755529,2.0324,-2.1102417260551785,3.8225719086378978,0.029540660000000333,-101.78456652,-6.3615354075,SbPHO5
mp-776903,,,,,,,
mp-850358,0.3440999999999992,-1.7496899423809522,5.201236364738922,0.041412701428566116,-78.73524116,-5.6239457971428575,LiCuSbO4
mp-25053,2.0882000000000005,-2.4746035760833327,5.567566583651182,0.010767923500001329,-64.52944802,-6.452944802,Sr2NiMoO6
mp-763091,,,,,,,
mp-32449,,,,,,,
mp-31874,0.3548999999999999,-2.3282303120168053,2.3139635143024857,0.09495463981617913,-235.83468283,-6.936314200882353,Fe(PO3)4
mp-685415,4.1414,-1.7021061604333332,3.5053768582006706,0.005621143900000014,-177.48486168,-3.5496972336000003,Na3SmBr6
mp-761527,3.4365,-2.6287645372647512,2.8165158027304704,0.015596881071439306,-200.74831468,-7.1695826671428575,LiMnPO4
mp-559937,1.7816,-2.060071494338235,7.0500828825309085,0.0014717631127343367,-439.48010984,-6.462942791764706,UTe3Pb2O11
mp-672349,,,,,,,
mp-568656,2.021799999999999,-0.20568772299999974,3.1719081906612163,0.0,-150.61535921,-7.5307679604999995,SiC
mp-27212,3.8902,-2.4130918755750006,3.5211158803198472,0.0,-298.10365601,-4.1403285556944445,Sb2IF15
mp-7973,3.4456,-2.90924766,5.625138330206678,0.0,-25.87699886,-6.469249715,RbNdO2
mp-1029,6.6232000000000015,-4.1832619441266665,4.6949633281936745,0.0,-17.30985693,-5.76995231,BaF2
mp-12992,,,,,,,
mp-775259,3.3773,-2.3852040574768343,3.4565240922105356,0.6647657513461542,-274.52987393,-5.2794206525,Li2Mn3F8
mp-762570,,,,,,,
mp-569030,6.3715,-1.805691629765926,1.2359160676275402,0.018887559074072247,-104.97770737,-3.8880632359259266,BeCl2
mp-698696,,,,,,,
mp-776821,,,,,,,
mp-571461,0.7257,-0.4560075924285713,2.3531512974779973,0.0,-18.21012566,-2.6014465228571426,K4ZnAs2
mp-7937,0.6318000000000001,-1.5417242078125,4.103609345333783,0.0,-49.05280922,-6.1316011525,NaNbS2
mp-756876,3.9056,-2.598249883563187,2.9068309172667655,0.026235392307691008,-166.77426024,-6.414394624615384,K3BaPCO7
mp-780141,,,,,,,
mp-554566,,,,,,,
mp-759424,4.4645,-2.5901520191666663,3.44839423655169,0.0524297962625031,-529.06069156,-6.6132586445,Li7Bi2P7O24
mp-581775,0.7385999999999999,-0.17385699437135302,6.3859896442759885,0.0061907565144223575,-158.31020491,-3.0444270175000003,Cs5(KPb6)3
mp-697120,7.5443,-2.0703751001481483,2.0922655135892,0.04739815731925301,-97.3332985,-5.407405472222222,BH3NF4
mp-619802,,,,,,,
mp-776615,1.79,-2.434749645416667,4.059863626204647,0.004406645312499791,-110.87750807,-6.929844254375,Li4VCr3O8
mp-4658,4.5436,-3.2006046677499995,4.105078412712752,0.004162320800002561,-164.90843704,-8.245421852,La(BO2)3
mp-868385,,,,,,,
mp-863374,2.2396000000000003,-1.6246270854166671,7.686667275633892,0.0,-135.04056679,-5.626690282916668,BiTeO4
mp-601344,6.0172,-2.3113947095879257,2.5648450116407338,0.0,-994.72155149,-5.526230841611111,LiZr3H18N4F19
mp-775288,0.4548000000000001,-1.890263931041666,5.0595539174820585,0.12055643406250205,-160.07671709,-6.6698632120833325,Cr3Fe2Sb3O16
mp-766154,,,,,,,
mp-756951,2.7510000000000003,-2.086238155083333,4.74914712763987,0.04112846199999965,-58.41221924,-5.841221924,LiSbO3
mp-771838,4.363900000000001,-3.5983834175499987,4.597011402660074,0.07385879860001232,-391.72410174,-7.834482034800001,La4Al6O15
mp-34465,2.7785,-0.5630494610833336,1.4464240329847122,0.058731444305554874,-17.262252399999998,-4.315563099999999,Li2HN
mp-554821,3.4104,-1.5001440070192311,5.520361613667026,0.0,-267.67701842,-5.147634969615385,Tb(IO3)3
mp-769118,1.1406,-3.092253289791666,7.10374107423637,0.01598081953703545,-86.3112963,-7.192608024999998,HoSO
mp-761752,,,,,,,
mp-774411,1.9101000000000004,-2.054671015166666,3.4262222644696676,0.103909579333334,-29.98288789,-5.996577577999999,Li2VO2
mp-557969,4.5892,-3.125853349467917,4.28498962692464,0.0,-213.93508908,-6.68547153375,LiLa2S2O8F3
mp-505265,,,,,,,
mp-773380,,,,,,,
mp-22914,0.5611999999999999,-0.6755105716299998,4.165254139904827,0.0023671249999996924,-6.70407879,-3.352039395,CuCl
mp-767985,,,,,,,
mp-766609,,,,,,,
mp-569684,3.0734,-1.4764949429413337,2.5392238515813195,0.0,-312.16763013,-3.4685292236666667,Zr(TeCl6)2
mp-753663,3.6748,-1.991186737619048,3.4217366693019438,0.05692100035714365,-61.015970700000004,-4.358283621428571,BaYBr5
mp-720397,1.2495,-0.7426475267349996,1.805739543844555,0.08225966143285568,-556.58069437,-4.969470485446427,H18RuN5(ClO)2
mp-761624,,,,,,,
mp-764196,,,,,,,
mp-995206,2.4459,-0.5833962152475003,1.1371733209418329,0.458132748125009,-89.14197389,-5.571373368125,H2CO
mp-765874,,,,,,,
mp-770174,,,,,,,
mp-779064,3.0096,-2.8483379671696976,2.9223759106771805,0.09197995735538188,-224.20848892,-5.0956474754545455,Li4FeOF5
mp-1019565,2.9786,-2.648182072625,4.667227996497121,0.0,-519.27492005,-6.490936500625,Ca3Ga2(GeO4)3
mp-31746,1.9816000000000005,-2.5436659228316327,2.603465383165648,3.018667251488093,-375.08013769,-6.697859601607143,Li3Cr(PO4)2
mp-19381,2.4945,-3.0367790122500002,7.650230159658419,0.16333282149999914,-160.67090311,-8.033545155499999,DyCrO3
mp-17143,2.7986000000000004,-3.6143020750000017,7.389304172991262,0.0,-289.41596684,-10.33628453,BaGd2O4
mp-706617,4.6642,-2.9576013953043745,2.423419125748677,0.0,-222.82508402,-6.963283875625,Na2AlSi3HO9
mp-778251,2.3268,-2.2767312199523806,3.4387844691880063,0.2026571399375072,-262.29178046,-6.5572945114999985,Li4TiCo2Ni3(PO4)6
mp-2068,0.8625999999999999,-1.8654585346425,5.294262957008717,0.0,-38.12398820000001,-4.765498525,RhF3
mp-570248,3.5755,-0.3513266899400015,1.8746993322616576,0.0,-548.77367217,-7.621856557916668,NaC2N3
mp-14790,0.4203999999999999,-0.03788160857142791,5.982918389178326,6.112785714318392e-05,-26.77290273,-3.82470039,Ge(Te2As)2
mp-769148,3.1686,-0.9808569440487496,2.8506284670886624,0.035301458124993516,-153.47143753,-4.7959824228125,Sc(ClO4)3
mp-9837,2.4839,-2.8186974971759264,6.948915706702546,0.0,-352.77512028,-6.532872597777778,Ba4Nd4Zn3PtO15
mp-3721,4.0578,-3.816070373083333,7.491653359346388,0.0060620920000005185,-86.92802859,-8.692802859,SrHfO3
mp-771194,1.8118,-2.4217085626136376,4.675983690474468,0.09005857007575102,-343.18434324,-7.7996441645454535,Nb2Ge2O7
mp-763244,2.937,-1.9303738252253837,3.0684948506245635,0.16762912576923128,-121.28729125,-4.664895817307691,ZnFeH4O2F5
mp-695772,1.9517,-2.460139215840336,3.0396053058380765,0.04733950205882476,-243.47626176,-7.161066522352941,Mo(PO3)4
mp-566751,,,,,,,
mp-776839,,,,,,,
mp-765117,,,,,,,
mp-771555,,,,,,,
mp-559752,3.9582,-2.5166433845003517,3.963145822749393,0.0018821019642860648,-168.66925762,-6.023902057857143,CsZnPO4
mp-24510,3.6604,-1.5002576821658344,4.417473691752229,0.014176036249999413,-118.33842549999999,-4.930767729166667,BaH2I2O7
mp-779968,,,,,,,
mp-647285,,,,,,,
mp-3789,2.7499,-2.4562118671428563,4.07817831024754,0.0,-252.71074086,-6.0169224014285705,Zn2SiO4
mp-643158,4.0455000000000005,-0.6062430819322445,1.9523786989637903,0.00047267232142989,-146.30496023,-5.225177151071429,PH8IN4
mp-15483,1.8964,-1.7780144726923075,4.671269713714893,0.005413681923077007,-280.69963932,-5.398069986923077,Zn3(AsO4)2
mp-754239,4.0847,-3.05158108725,5.22101958218099,0.07645265375000054,-149.42184347,-7.471092173500001,ScGaO3
mp-764417,1.0196000000000005,-1.7004392006465519,5.535763101857167,0.05912625362069158,-193.30587741,-6.665719910689655,Fe14O15
mp-769075,0.7787000000000002,-1.0324467018083818,1.909678014634814,0.09634572200228676,-415.99247271,-5.942749610142857,Li2CuH14C4(N3O4)2
mp-644292,0.2582,-0.5074404805614816,4.742694482362339,0.023260399444444246,-46.18636716,-5.131818573333334,Eu2MgH6
mp-19528,,,,,,,
mp-530245,1.8715,-3.7504623263020833,7.377159186022014,0.17561589187499038,-544.6175647000001,-8.5096494484375,Tm2TiO5
mp-7599,7.0841,-3.098748446875,2.8545846846451903,0.01175402374999823,-56.73030091,-7.09128761375,BeO
mp-704836,1.395,-2.41747017609375,2.443068899004133,1.0693541465625005,-228.26537993,-7.1332931228125,CaTiSiO5
mp-774138,,,,,,,
mp-705008,0.0,-2.4771071746031743,2.708192125204125,0.05683021818055513,-651.30423058,-7.236713673111111,V4P9O32
mp-560656,2.9164,-2.4187007483499987,4.2469176650911065,0.0,-599.46527626,-5.9946527625999995,CaTeO3
mp-777556,,,,,,,
mp-558569,5.6397,-3.2050574072222213,2.199084544585146,0.07294026194444392,-564.71745154,-7.843297938055555,SiO2
mp-767700,,,,,,,
mp-565798,,,,,,,
mp-23709,4.3732000000000015,-0.12990719202666606,1.000494965406573,0.03427640909090979,-36.43491998,-3.312265452727273,Mg(AlH4)2
mp-850268,,,,,,,
mp-19340,1.7730999999999997,-2.4973162885416667,3.9454667805496384,0.0,-55.57975023,-6.94746877875,LiVO2