id,band_gap,formation_energy_per_atom,density,e_above_hull,energy,energy_per_atom,pretty_formula
mp-722267,3.2662,-1.527483461,2.817247593,0.005107984,-171.338073,-5.039355089,Na5H7(Se2O9)2
mp-764643,1.515,-2.373342713,3.236748836,0.048394708,-317.0171097,-7.044824659,Li5Fe8(BO3)8
mp-677573,2.9901,-2.560999187,3.844668648,0,-497.7286092,-6.221607615,NaCa2Mg2(AsO4)3
mp-16847,0.9684,-0.394534111,2.433694304,0,-119.189574,-3.310821501,K3Na2SnP3
mp-980387,0,-0.794295575,13.01461242,0.012123611,-31.97766413,-7.994416033,DyYIr2
mp-697076,0,-0.436259756,6.022406214,0,-159.1566176,-5.684164915,Ti3Zn3C
mp-772562,0,-3.149479803,6.033333456,0.062730343,-177.107572,-8.050344182,Nd2V2O7
mp-669923,0,0.070243204,12.70083799,0.220425798,-113.4686277,-7.091789234,UGa
mp-559808,3.5723,-2.487640433,4.455222898,0,-179.610995,-5.612843593,Cs3PO4
mp-554255,2.1538,-1.669242719,3.482316003,0,-264.0354932,-5.077605639,Ba3(PS4)2
mp-28179,2.902,-1.913967187,2.938232218,0,-144.1148081,-4.503587753,NaTaCl6
mp-743636,4.267,-2.27544212,3.29104517,0,-455.4131709,-6.325182928,NaNiP2HO7
mp-566150,0,-2.175574152,4.306614182,0.001094481,-322.9055355,-6.45811071,In2Cu3(PO4)4
mp-772750,5.4592,-2.603556516,2.456549697,0.049945655,-170.7893238,-6.568820145,Li3MgPCO7
mp-997038,0.0991,-0.675800979,7.382145867,0,-38.32569964,-4.790712455,AgPdO2
mp-504474,4.7376,-2.967902415,6.889089823,0.083253724,-56.38328279,-7.047910349,TbHO2
mp-756531,0,-3.075241514,6.753670786,0.021800386,-153.9941847,-7.333056415,LiNd6(CuO6)2
mp-18902,4.8942,-2.343672827,4.295825097,0.015471931,-274.4156518,-6.533705996,Li2WO4
mp-864959,0,-0.263072951,11.89433216,0.019001241,-25.5791628,-6.3947907,Dy2CuOs
mp-11492,0,-0.518620336,10.46298642,0.014132984,-22.16626057,-5.541565143,LuNi2Sn
mp-581584,2.2215,-3.218552766,4.619630203,0,-796.6985452,-7.660562935,Cs2U(SiO4)2
mp-865689,0,-0.531386621,6.465613823,0,-131.7742555,-5.490593979,Y11In9Ni4
mp-5181,0,-0.902078146,11.0817677,0,-22.49986275,-5.624965688,LuSnPd2
mp-770190,1.9478,-2.716332348,2.896357357,0.082583322,-292.8623375,-6.972912797,Li4V2Si(PO6)2
mp-23116,0.3094,-0.841265508,8.62781295,0,-38.15702768,-4.76962846,CuBiSeO
mp-569028,1.3126,-1.21179556,3.833608117,0,-26.7227111,-2.969190122,Rb2SnBr6
mp-985292,0,-0.570445856,6.5487468,1.035293502,-25.03867502,-5.007735004,AgBO3
mp-997002,1.4151,-1.160758846,5.400401098,0,-34.95964344,-4.36995543,KAuO2
mp-8070,5.8713,-2.988553665,2.611718721,0,-107.5697061,-6.723106633,Li2BeSiO4
mp-774335,3.108,-2.342798003,4.325571051,0.047513431,-593.5525436,-6.744915268,Sn2P2O7
mp-685266,0.0781,-0.794896563,2.430426712,0.07573098,-379.4060018,-4.86417951,LiMg7N5
mp-31189,0,-0.195406547,3.524048477,0,-111.6492844,-3.987474442,DyBe13
mp-11703,1.6174,-1.073813855,2.996771591,0,-32.92354607,-4.115443259,KSbS2
mp-631521,0,1.19489645,8.331052088,1.275484721,-19.15647518,-6.385491727,BaHfMo
mp-705354,0,-2.47730802,3.146714385,0.057187924,-287.8576283,-7.575200745,Mn4(PO4)3
mp-677445,0,-2.007313332,4.47888783,0,-57.74661603,-7.218327004,Y4SiS3
mp-673682,2.1164,-2.504025279,7.042667301,0.007001661,-84.33923668,-6.024231191,Tb2YbS4
mp-31171,0,-0.150383567,11.13651531,0,-9.24948312,-2.31237078,Zn2AgAu
mp-624187,0,-0.722359476,7.444964484,0,-199.2421255,-6.226316421,Y5Bi3
mp-8469,0,-1.934966877,4.365223062,0.005719004,-78.5106024,-5.23404016,Li8IrO6
mp-863370,0,-2.934528125,4.327353986,0.019912572,-765.2436289,-8.140889669,K6Nb11O30
mp-8754,2.284,-0.990486755,3.508012148,0,-37.44099828,-3.12008319,NaLiTe
mp-650442,0.5351,-0.259537624,8.302304796,0,-71.08630835,-2.961929515,Tl3AgTe2
mp-7768,1.3858,-2.090240167,9.292192392,0,-44.66545236,-8.933090472,Th2SeN2
mp-555280,2.0347,-1.128590515,3.991811794,0.011712839,-41.96655835,-3.497213196,ZnS
mp-6294,0,-2.89822099,6.432795417,0,-143.0844762,-7.154223808,Sr2ErRuO6
mp-556377,2.2898,-3.009548821,7.684347042,0.001874986,-688.6947704,-6.751909514,Ba17Dy16Zn8Pt4O57
mp-999136,0,-0.644168038,7.710914418,0,-24.16298645,-6.040746613,TaInSe2
mp-626264,3.8287,-1.472205317,2.118483417,0.02602272,-271.5481514,-5.028669471,Ba(H8O5)2
mp-560131,5.6874,-3.197425141,1.85109418,0.091725875,-375.5267675,-7.823474323,SiO2
mp-770856,0.6506,-2.267847699,4.072056957,0.01463846,-431.731925,-6.745811328,Li2MnCrO4
mp-721013,3.5802,-2.008054437,2.812659027,0.008776751,-415.9309998,-6.116632351,ZnGaP2H4NO8
mp-574438,0,-0.32502285,12.70895295,0.036726522,-53.83402132,-8.972336887,ThRu2
mp-541636,5.4828,-2.942012078,3.568309631,0.013008548,-523.9604905,-7.277229034,KEr(PO3)4
mp-706325,0.8886,-2.836901436,6.388623128,0.052643591,-143.6460815,-7.182304075,CaDyMnSnO6
mp-669564,1.5022,-1.013707043,6.288026599,0.003709839,-505.6306107,-7.022647371,CsRe6S8Br3
mp-766834,0,-3.256461302,3.748973015,0.036537619,-454.0605039,-8.255645526,Li7Ti16O32
mp-31167,0,-0.699118623,8.045293956,0,-89.4119129,-5.588244556,Er5Si3
mp-754711,0.9396,-2.513756003,7.371596163,0.051985314,-169.7308892,-7.715040416,Nb2Pb2O7
mp-3982,0.8642,-1.388657556,3.083444945,0,-38.4341744,-4.8042718,KCuO2
mp-11031,0,-0.491539824,7.482924443,0,-94.79769688,-4.308986222,CeAl7Au3
mp-738654,1.9706,-1.341245424,2.545684877,0.091399368,-928.7361154,-6.275244023,UH16C4(NO3)4
mp-726,3.2789,-1.171747232,3.731778585,0,-123.6605719,-5.15252383,SeO2
mp-866650,2.336,-1.343918114,4.941602844,0,-423.8627757,-8.151207224,La2Si4CN6
mp-723044,4.4143,-0.973275518,1.773242864,0,-362.8604963,-4.319767813,ZnH12N3Cl5
mp-758413,0.209,-1.463707323,3.954338448,0.016038181,-154.9032352,-3.872580881,Na2CdO2
mp-1018161,0,-0.03216905,7.509968087,0.146458603,-19.63881371,-6.546271237,CrNiSb
mp-557505,2.3389,-2.936290243,3.649345658,0,-976.8345966,-7.631520286,KUP3O11
mp-8630,1.423,-0.696009035,10.10502363,0,-74.174475,-6.18120625,SbIrS
mp-561172,0,-1.697224742,7.456748451,0.131429037,-68.19801575,-5.246001212,BaBi4(BrO3)2
mp-972876,0,-0.134021525,4.405049619,0.012817272,-40.89686324,-5.112107905,Sc3Cd
mp-582736,0,-0.733711032,4.893186193,0,-25.42254878,-5.084509756,Eu(MgSb)2
mp-759346,0,-2.202438872,3.174796189,0.047708554,-699.8366742,-6.248541734,LiCuPO4
mp-541846,5.5685,-2.378099618,2.321456062,0.007630106,-362.3688366,-6.968631473,P4O9
mp-571305,0.2435,-1.437648413,3.146992876,0.027722539,-64.26247894,-3.213123947,RbCuCl3
mp-770812,0,-3.543471579,6.367994583,0.041943812,-221.0506466,-7.894665948,SrCe2O4
mp-1013583,0,-0.617001084,3.650431568,0.378650548,-16.39185794,-3.278371588,Sr3Sb2
mp-505104,0,-1.218782124,5.218941904,0,-153.0440499,-5.101468329,Cu3BiSe2ClO8
mp-10180,0,-0.661341363,6.165656394,0,-15.76679892,-3.94169973,Li2SbPd
mp-1014332,0,3.194806048,1.981582186,3.194806048,-182.7973499,-5.712417184,C3N
mp-672306,0,-0.476915717,5.221419021,0,-77.96462888,-3.248526203,Ba6In5N
mp-7720,0,-0.422716375,6.967571354,0.016135856,-53.44890232,-4.111454025,Ce2Ga10Ni
mp-569484,0.2196,-2.206720584,3.040127452,0,-121.3183437,-4.332797989,Cs3Ti2Cl9
mp-754019,0.6541,-2.571986472,5.076813349,0,-65.14640247,-6.514640247,Na4NpO5
mp-780526,4.0507,-2.19377985,2.515681915,0.067986433,-159.7890021,-6.657875089,Li2MnCSO7
mp-20610,0,-0.997978847,10.7021562,0,-77.95795795,-6.496496496,LuGeRh
mp-851257,1.5634,-3.052920135,3.27742891,0.001978552,-202.1877505,-6.318367203,V2OF5
mp-558706,2.5213,-1.231272566,3.146922564,0,-154.0483368,-4.279120466,RbGa3S5
mp-557599,4.0938,-0.927959641,3.118684473,0,-245.4234771,-4.38256209,Rb2Bi(ClO4)5
mp-988939,0,0.134439353,4.263956894,0.6234905,-8.12706622,-4.06353311,AlAs
mp-722686,5.5053,-1.569377739,1.845447714,0.024753167,-577.1763774,-5.771763774,SiH10C2N4(OF3)2
mp-8065,2.7544,-3.369776179,3.463962497,0,-175.31213,-8.348196667,K2Ti6O13
mp-850669,2.7163,-3.513141469,8.232337026,0.023836378,-502.9693256,-9.67248703,YTa3O9
mp-25960,0,-2.364944529,3.170475194,0.071379316,-232.9169232,-6.850497742,Bi(PO3)4
mp-13361,0.6341,-2.164575833,4.601962848,0,-78.69915703,-6.05378131,Cd2Cu(PO4)2
mp-3890,0,0.038132494,8.067889962,0.038132494,-154.8790516,-8.151529031,Sm2Cr2Fe15
mp-971669,0,-0.022762506,7.235385767,0,-83.73167822,-5.233229889,FeSb3
mp-12049,0,-0.849166195,7.297679053,0,-32.4100719,-5.40167865,Nd2Sb
mp-697236,4.237,-1.670867082,3.315234064,0.002437874,-117.6016723,-5.345530559,MgH2(SeO3)2
mp-776816,3.6654,-2.916285078,3.074612367,0.0877652,-159.9032298,-4.996975933,Li2FeF5
mp-30910,0,-0.182486234,6.787154205,0,-135.9902635,-3.486929834,Mg2Ga5Cu6
mp-29978,6.9349,-4.139460854,3.861577088,0.000537131,-267.7057499,-5.819690215,Sr5Al2F16
mp-505528,0,-0.629625697,7.717940671,0,-306.1417172,-9.566928662,Nb3P
mp-556085,2.7218,-1.591146871,3.415787613,0,-169.5333754,-5.29791798,Rb2LiTaS4
mp-977424,0,-0.503390636,9.579087447,0,-10.04553702,-2.511384255,Yb2ZnPb
mp-1608,0,-0.061768538,12.97550782,0.024239191,-9.70566746,-2.426416865,ZrHg3
mp-30559,0,-0.032001012,8.387663399,0,-195.6090642,-6.986038008,LaCo13
mp-768334,0,-2.688101167,3.612547694,0.078911557,-209.5473889,-5.820760803,LiMn2OF5
mp-11546,0,-0.475921128,7.998690592,0.071323625,-14.02711156,-7.01355578,TiPd
mp-765733,0,-1.903843525,4.768204796,0.056785689,-167.5303504,-6.980431267,Mn4O7F
mp-766,0.4949,-0.404540837,8.051427197,0,-39.55065024,-6.59177504,As2Ru
mp-15641,0,-0.571376727,3.215540903,0,-39.77402456,-3.314502047,CaMgGe
mp-9010,1.986,-0.969739613,5.34700497,0,-21.32758295,-3.554597158,RbAuS
mp-20092,0,-3.481157131,8.027066838,0.014990537,-90.69045087,-10.07671676,EuTa2O6
mp-778219,0,-1.99446507,4.939550369,0.033147158,-177.6974451,-6.346337326,Li4Cr3Co3(SnO8)2
mp-23025,4.069,-3.6128458,5.31655024,0,-42.4907902,-7.081798367,LaClO
mp-27301,0.8377,-1.371579486,4.251460918,0,-84.20676583,-3.007384494,Rb3Au3Cl8
mp-570594,1.1601,-1.297009261,6.474283713,0.008138024,-124.4966881,-5.187362004,Sm3CuSnSe7
mp-20950,0,-1.031541308,10.86705818,0.076346318,-32.88709424,-6.577418848,Nd(SiPt)2
mp-5881,0.3679,-0.581124525,6.929479368,0,-131.5610614,-5.48171089,CoSbS
mp-865237,0,-0.673964094,12.17376258,0.020756179,-21.78886663,-5.447216658,Tm2ZnIr
mp-5001,3.3711,-0.969204078,1.731905044,0,-136.4904535,-5.687102231,Li3BN2
mp-1009048,0,-0.601010171,4.656848099,0.447329597,-9.9684536,-3.322817867,KAgO
mp-752670,0,-1.163698617,2.319306533,0.163139922,-65.4457895,-4.67469925,Li3FeS3
mp-30651,0,-0.121495288,4.70933576,0.009409665,-16.06031625,-2.676719375,MgGa2
mp-4189,0,-0.549831946,8.715163277,0,-49.29567422,-5.477297136,Dy6FeSb2
mp-11364,0,-0.049915963,6.346075782,0.087530048,-12.09625155,-6.048125775,TiCu
mp-979459,0,0.009808165,6.684583981,0.044284453,-25.12723151,-4.187871918,Sm5Mg
mp-22858,2.1382,-0.657256468,6.587461777,0.024149847,-10.40104269,-2.600260673,TlI
mp-21872,4.8919,-3.935665775,8.325109786,0.012927375,-166.6684989,-8.333424944,PrLuO3
mp-554651,0.7255,-1.966193306,3.614066426,0.016461121,-212.6079903,-5.905777507,K3Pu(H3O4)2
mp-560512,0.5831,-3.547200003,7.962320074,0.00261648,-306.0388239,-8.501078441,Sm2EuBeO5
mp-989556,0,-2.791731786,5.017248396,0,-43.27127223,-4.327127223,Cs2NaPbF6
mp-555026,7.4237,-3.885440454,2.83172467,0.004386626,-235.515154,-5.88787885,AlF3
mp-867351,0,0.009512172,11.14052006,0.009512172,-41.39585875,-10.34896469,Tc
mp-645743,2.5943,-1.660895557,5.265559354,0.011492853,-191.1501378,-5.973441807,VAgTeO5
mp-18373,3.0413,-1.389011539,4.436935245,0,-161.9839757,-5.06199924,ZnSe2O5
mp-790,0,-1.09435247,18.61637677,0,-27.0737654,-6.76844135,LuPt3
mp-20802,0,-0.682527473,10.98231947,0,-46.95623917,-9.391247834,Eu(POs)2
mp-569348,3.5506,-0.914614616,4.303346757,0,-139.2109171,-2.90022744,TlGaBr4
mp-568018,0.2906,-0.281226425,4.292221341,0,-20.22980837,-3.371634728,RbSb2
mp-778532,2.3693,-2.933818735,2.524740017,0.05718446,-214.5702471,-5.108815408,Li2FeF4
mp-30801,0,-0.296813144,7.276122017,0,-12.91010856,-2.15168476,NdZn5
mp-720391,7.4712,-2.045395301,1.860992134,0,-214.9043959,-5.372609897,BH4NF4
mp-1001824,0,1.439115241,15.85136274,1.439115241,-15.21106999,-7.605534995,IrC
mp-1008676,0,-0.430449382,3.934319504,1.28730893,-16.11731257,-5.372437523,TiS2
mp-782667,2.764,-2.663935978,2.977138125,0.044340963,-219.7472407,-6.867101271,Li2MnSiO4
mp-30293,1.7486,-1.305611828,4.446258126,0,-62.17626673,-4.441161909,Sr2GeSe4
mp-1018728,0,-1.544931871,7.836343805,0.026285065,-32.38371244,-5.397285407,HoSe2
mp-771208,2.7217,-2.663928848,5.23694781,0.045328101,-307.1500282,-6.143000563,Ba5(Ga3O7)2
mp-638206,3.7531,-0.810915929,1.961296905,0.023157721,-312.8217646,-5.213696077,P3CN4Cl7
mp-540728,0.7586,-1.741528978,4.711826487,0.012364608,-131.1309412,-4.371031373,K2Zn6O7
mp-559917,3.7195,-1.289654387,1.783157446,0.013645229,-653.9939271,-4.541624494,P2NCl5O
mp-569983,0,-0.25712919,7.990693826,0.015398666,-99.99719873,-4.999859937,Ni2PdSe2
mp-12813,0,-0.600446892,9.443516865,0,-33.56256004,-4.195320005,YbIn2Rh
mp-558427,5.2539,-2.381636291,2.586613516,0,-310.8384824,-5.756268192,Na6Mg(SO4)4
mp-542730,0,-0.526335972,5.639359835,0.008747843,-580.4279895,-9.673799824,V8C7
mp-780799,0,-2.48224567,3.160882844,0.005133781,-343.8462389,-7.16346331,Li8Mn5Fe3(BO3)8
mp-752890,0,-1.505555814,2.911087016,0.083365355,-152.4181609,-6.350756705,LiCu2C2O7
mp-981391,0,0.471973723,16.62507433,0.471973723,-7.88700335,-1.971750838,Hg3Ir
mp-978969,0,0.092248655,16.30200318,0.102509749,-11.81881944,-2.95470486,TlAu3
mp-531064,2.3713,-0.885252138,4.033632756,0,-438.7059238,-4.985294589,KMo3Br7
mp-770359,2.6704,-2.607724943,6.415927415,0.039362991,-196.2212372,-8.175884885,TaAsO4
mp-1387,0,-0.135952105,5.36784798,0,-63.05905524,-7.882381905,AlV3
mp-15021,0,-3.458116323,7.896172884,0,-415.96794,-9.042781304,Ba3Ta5O15
mp-21780,0,-0.971698341,8.947384624,0.005809989,-398.8336516,-7.385808363,SmSi3Rh5
mp-580886,0.7364,-1.473793419,5.816178154,0.029719405,-44.88086729,-7.480144548,ZrIN
mp-1020025,6.1414,-2.790228117,2.827655472,0.046002386,-1091.002903,-7.576409049,LiB3O5
mp-763577,0,-2.806622071,3.775978984,0.057365216,-112.2232359,-7.481549062,Li3Ti2V2O8
mp-998391,0,-1.06024993,4.426228147,0.033356528,-13.57177563,-2.714355126,RbTlBr3
mp-754163,0,-1.981951331,2.363655583,0.134499068,-30.31124134,-5.051873557,BeClO
mp-849515,3.1179,-2.574834772,2.588568828,0.078333248,-397.8053622,-7.103667182,LiMnPO4
mp-997084,0.6882,-0.969029454,5.037523624,0.048347458,-16.17415424,-4.04353856,RbAgO2
mp-541066,0,-0.358280146,7.881271908,0,-160.387907,-7.290359409,Mg2B4Ru5
mp-760378,0,-3.223240013,3.751547149,0.041549045,-114.3411364,-8.16722403,LiTi2O4
mp-16903,4.7617,-3.38782364,4.414503748,0,-146.5156629,-5.232702248,SrSbF5
mp-754204,3.1305,-3.188629219,5.992703908,0.040215164,-74.39745692,-9.299682115,LiGdO2
mp-23931,6.9829,-2.019351525,1.934708315,0.00068626,-162.4477863,-5.801706653,LiPH2O3
mp-19821,0,-0.081785282,6.993450257,0.006917519,-66.89753727,-8.362192159,Cr2GeC
mp-775922,1.5303,-2.861542466,4.541827227,0.077274916,-207.798718,-8.658279915,SrNb3NO7
mp-705894,0.3645,-1.63128698,3.494091229,1.07410312,-476.4794202,-6.438911084,RbSi2Mo3P6O25
mp-3800,0,-3.243917219,6.329956517,0.037128583,-555.6894246,-6.946117808,Yb3Al5O12
mp-20022,0,-0.877186477,11.33058765,0,-88.20982303,-7.350818586,CeGeIr
mp-705069,3.2117,-2.611785081,3.241723397,0.041382938,-599.8118693,-7.140617492,LiMnPO4
mp-647218,0.5972,-2.329801015,5.158427781,0,-468.5795417,-7.809659029,Re2P2O11
mp-983566,0,-0.48459775,4.40111205,0.026823685,-13.39440037,-3.348600093,Ca2AgGe
mp-1097,0,-0.814792498,13.97280475,0,-40.32713746,-10.08178437,TaB
mp-763259,2.8402,-2.568136373,3.257700385,0,-200.9037608,-7.727067723,Mn3(PO4)2
mp-777919,1.7335,-1.59038914,2.674627202,0.017786097,-132.2526739,-4.723309782,Na3CoO3
mp-981367,0,-1.645253093,7.203328323,0.236903617,-24.95651357,-4.991302714,SrTlO3
mp-554420,4.7279,-3.787935828,4.611200016,0.025001966,-279.1825922,-8.724456005,Y2SiO5
mp-977579,0,-0.60896502,8.472969911,0,-18.52382516,-4.63095629,MgSbPd2
mp-769316,3.9757,-3.270397666,3.231829342,0.086964443,-315.9526707,-5.850975383,Li5Nb3OF18
mp-772876,3.9536,-1.725689476,3.856917605,0.017100969,-119.7530444,-3.326473456,BaSr2I6
mp-567583,1.9983,-1.524270398,2.794064241,0,-49.48001064,-3.092500665,CsSbCl6
mp-753506,0.209,-0.999600408,5.324329591,0.070303273,-16.73345629,-4.183364073,LiBiS2
mp-541637,0,-0.931264261,6.990587843,0.06599241,-34.24631933,-3.805146592,Er4I5
mp-22414,0.0626,-1.075886725,5.140191807,0.034219781,-102.5898835,-5.129494176,CuSeO3
mp-780893,0.9105,-2.089210588,2.55878504,0.075556352,-167.49577,-5.583192333,Na6V2O7
mp-15155,2.0519,-3.373931748,5.112248149,0.051631222,-135.421875,-7.965992644,Na2Sm2Ti3O10
mp-2981,2.9347,-2.418349218,4.16733006,0.011521584,-538.4826286,-5.983140317,CaTeO3
mp-20011,1.4939,-2.021783409,4.575569746,0.055453115,-113.0156415,-5.650782073,NaSbO3
mp-556369,0.9331,-1.09242835,6.920166576,0,-82.58877862,-4.129438931,CdHg2SeO6
mp-776343,1.4349,-0.366652007,6.075908149,0.183098589,-359.5743182,-9.988175506,WN2
mp-8426,2.091,-1.098777468,2.236226043,0,-9.00650046,-3.00216682,K2Se
mp-997086,0.5904,-1.846452605,5.885536785,0,-40.70273547,-5.087841934,SrAgO2
mp-27843,2.3392,-2.034957633,5.446922263,0.001880826,-306.7186521,-5.898435618,Zn2Ge3O8
mp-680154,2.7546,-2.372630064,4.130841617,0.084821281,-584.5537115,-6.495041239,Rb2Ti(GeO3)3
mp-23656,4.1073,-2.698747467,2.741518622,0,-289.5271771,-6.294069068,Na4Ga3Si3ClO12
mp-1820,2.2234,-2.588348227,7.498294273,0,-10.16995285,-5.084976425,YbS
mp-6299,5.5458,-2.514523897,2.69765251,0,-457.2621221,-6.016606869,K2Mg2(SO4)3
mp-1050,0,-0.748522022,4.843491591,0,-72.86419548,-5.204585391,Ni3S4
mp-625663,4.4861,-3.00977024,3.1652272,0.006431197,-120.2567402,-7.516046264,ScHO2
mp-18898,0.3732,-1.122438335,4.410087717,0,-64.54409917,-4.964930705,Sr(NiO2)4
mp-3405,4.491,-3.37923867,3.118343512,0,-424.8290324,-7.324638489,NaAl11O17
mp-4006,5.9196,-3.53509444,6.057410299,0,-96.1868659,-8.015572158,ErPO4
mp-555727,5.4909,-2.9432736,3.717968415,0,-523.9163266,-7.276615647,RbTb(PO3)4
mp-697921,3.5747,-2.162113,2.399641762,0.0087921,-119.5437908,-5.433808673,Mg5H8O9
mp-10366,0,-0.446778462,8.371823287,0,-99.32449859,-8.277041549,Nb2Co3Si
mp-567963,0,-0.734565223,12.15099634,0,-90.99790888,-6.499850634,Lu5Ir2
mp-559463,4.2182,-1.667831918,2.328305527,0,-260.2109979,-5.204219959,RbMgAs(H6O5)2
mp-30622,0,-0.360275307,9.321737554,0,-88.16236978,-6.297312127,Dy5Ru2
mp-555314,4.4268,-3.473758254,3.813556537,0.020895211,-263.2240564,-7.520687325,Sr7Zr(Si2O7)3
mp-18262,1.78,-1.660370093,6.100109005,0,-167.8164224,-5.2442632,HoAgS2
mp-9322,0.835,-0.723034291,4.407973355,0,-68.01333101,-3.778518389,Rb2Sn2Se5
mp-568790,0.5969,-1.154674707,3.679583463,0,-448.8423894,-4.315792206,Ca14GaAs11
mp-774455,5.0024,-2.379390985,2.403083965,0.008278387,-511.0399077,-6.083808425,Na4P3H3O11
mp-780882,3.058,-2.179965498,2.677716636,0.095184437,-128.4147407,-6.420737037,LiMnPH2O5
mp-622591,0,-3.828940339,5.260052725,0.018741468,-182.8275275,-5.713360233,BaTbF6
mp-985608,2.8493,-2.68736049,6.064479234,0.029657703,-101.3082811,-7.23630579,Nd2O5
mp-33775,1.4349,-1.819191198,6.362955867,0.017495369,-80.8463033,-5.77473595,La5AgSe8
mp-19014,3.3388,-2.636326391,6.596206514,0,-129.2264445,-6.461322226,Sr2CdWO6
mp-560863,3.7518,-2.172681462,5.413206156,0,-262.8024946,-6.570062366,ThSe2O7
mp-5967,1.0561,-0.659380736,7.416113133,0,-21.11261012,-7.037536707,TiCoSb
mp-557319,3.5652,-1.412900752,2.055009289,0.028014704,-449.0936643,-6.237412004,InH8C4NO10
mp-769466,3.8964,-3.058641125,4.51841547,0.004920568,-85.41021942,-7.764565402,Y2Ge2O7
mp-998147,0,-1.045729756,5.392015255,0.010139652,-15.45644315,-3.09128863,TlCuCl3
mp-764874,1.5665,-2.349182857,3.195846431,0.068586373,-307.4156051,-7.149200119,Li3Fe8(BO3)8
mp-570226,1.1653,-1.299602079,6.433511183,0,-125.7856133,-5.241067219,Sm3CuGeSe7
mp-1006150,0,0.680846883,10.12403861,0.680846883,-40.59236345,-10.14809086,Eu3Re
mp-28995,1.2505,-0.130084436,4.105095217,0,-133.5838774,-5.137841438,Cu4SiP8
mp-980195,0,-0.381512495,8.122022722,0,-129.7583306,-4.474425192,Tm6Al7Cu16
mp-761472,0,-1.21334034,5.835883127,0.026541545,-79.94064819,-5.710046299,Co2CuO4
mp-21245,0,-1.08586288,11.75092378,0,-28.32575578,-7.081438945,CePt
mp-766237,3.4374,-3.975703261,5.40580712,0.000177851,-386.7883146,-9.669707866,Gd3Y13O24
mp-15081,0.3125,-1.893191506,6.811374011,0,-117.4686159,-5.873430796,Sm2Se3