id,band_gap,formation_energy_per_atom,density,e_above_hull,energy,energy_per_atom,pretty_formula
mp-567314,0,-0.48605605,9.731601654,0,-45.2711191,-5.658889888,ErNi
mp-779664,0,-1.356833685,4.985150662,0.086137609,-53.82966755,-5.382966755,AgGeO3
mp-865989,0,-0.877932602,10.57596389,0,-29.13778278,-7.284445695,Al2IrRu
mp-3789,2.7499,-2.461954908,4.078178051,0,-252.6618956,-6.01575942,Zn2SiO4
mp-6309,0,-1.545672104,6.224609979,0,-81.3626888,-6.258668369,La3Cu4(P2O)2
mp-643158,4.0455,-0.607473232,1.952470916,0,-146.3225218,-5.225804348,PH8IN4
mp-15483,1.8964,-1.785181845,4.671270268,0.005487695,-280.5313979,-5.394834575,Zn3(AsO4)2
mp-545481,0,-2.120169631,4.171487819,0,-34.65592922,-4.950847031,Ca2Cu(BrO)2
mp-754239,4.0847,-3.062045793,5.221018852,0.076356389,-149.410721,-7.470536049,ScGaO3
mp-764417,1.0196,-1.545632524,5.535764275,0.175475251,-188.3952033,-6.496386319,Fe14O15
mp-950,0,-0.052276675,6.241476719,0,-37.23404741,-1.329787408,NaZn13
mp-769075,0.7787,-1.033337645,1.909678006,0.098099457,-415.7328348,-5.939040497,Li2CuH14C4(N3O4)2
mp-8787,0,-1.240797676,8.709509788,0.002515863,-60.86810384,-6.086810384,Ho2NiAs2
mp-861940,0,-0.564345865,4.511207506,0,-11.18610485,-2.796526213,Ca2CdSn
mp-43,0,0.093748808,19.14596949,0.093748808,-335.9894225,-11.19964742,U
mp-644292,0.3658,-0.504547594,4.743295293,0.037503261,-46.16494579,-5.129438421,Eu2MgH6
mp-530245,1.8715,-3.76018771,7.377158594,0.176139273,-544.5364923,-8.508382691,Tm2TiO5
mp-7599,7.0842,-3.113285339,2.854584689,0.01182101,-56.72994552,-7.09124319,BeO
mp-974364,0,0.393286495,16.80377339,0.393286495,-17.51373803,-4.378434508,RuAu3
mp-704836,1.395,-2.425929035,2.443078931,1.071530129,-228.1783902,-7.130574694,CaTiSiO5
mp-11798,0,-0.08238361,11.44344379,0.0373948,-63.5317119,-7.941463988,Fe3Pt
mp-571624,0,-0.318850147,6.963578929,0.01998471,-91.62715518,-4.581357759,Dy3Al2
mp-705008,0,-2.490156329,2.708192279,0.05387446,-651.1585828,-7.235095365,V4P9O32
mp-560656,2.9164,-2.429870801,4.246917754,0,-599.4661901,-5.994661901,CaTeO3
mp-3055,0,-0.66470273,9.569086408,0,-44.1511789,-7.358529817,NdB2Rh3
mp-10264,0,-0.191777688,7.171055529,0,-18.60845397,-4.652113493,NiTe
mp-558569,5.6397,-3.216169249,2.199084417,0.072981767,-564.6397271,-7.842218432,SiO2
mp-865843,0,-0.333764124,7.629531841,0,-10.17464358,-2.543660895,YbNdZn2
mp-23709,4.3732,-0.128794729,1.000494971,0.034163408,-36.43517663,-3.312288785,Mg(AlH4)2
mp-19340,1.7867,-2.488644222,3.925587089,0,-27.71258526,-6.928146315,LiVO2
mp-975274,0,-0.516120264,2.798999379,0.578506205,-17.61478089,-3.522956178,RbNaO3
mp-10097,0.4419,-0.824258865,3.76598625,0,-79.51249561,-3.614204346,Na3Sr3GaAs4
mp-21835,0.7883,-0.360016498,4.927050582,0,-177.5732074,-3.170950133,Cs2In2Sb3
mp-17927,0.7873,-1.541685219,6.382715581,0,-137.9877541,-4.928134073,Ba(DyTe2)2
mp-568903,0,-0.689873917,6.313329742,0.00335544,-85.337206,-6.095514714,TlV5Se8
mp-29733,0,-0.194903322,7.864822522,0,-11.86554634,-3.955182113,MgNiBi
mp-28344,0.7964,-0.998180192,4.868255712,0,-205.4784375,-4.892343749,Zr6CI14
mp-757777,2.9748,-2.144455578,7.708821938,0.041604369,-148.6927958,-6.195533158,LiSiBi3O7
mp-976903,0,0.251424601,5.443664597,0.251424601,-14.62798984,-3.65699746,NaNd3
mp-1018791,0,-0.802131064,5.251782928,0,-32.20631642,-5.367719403,LiY(CuP)2
mp-850975,0,-1.800745041,2.653548853,0.044532821,-338.3823822,-6.266340411,Na4Ni2C4SO16
mp-11160,0,-0.877314609,11.52233591,0,-81.35786418,-6.779822015,SmSbIr
mp-555641,1.181,-1.383511892,3.366728114,0.007839548,-73.08056599,-4.298856823,Nb2Te4Cl10O
mp-972095,0,0.110696966,9.555213487,0.110696966,-7.35876612,-0.919845765,Zn3Hg
mp-555527,2.6145,-1.851927163,4.316312621,0,-160.54205,-5.733644643,Sm3Si2S8Br
mp-39536,5.9997,-2.211325932,1.86208512,0.173335062,-98.85641183,-5.815083049,CaC2S2(OF)6
mp-20245,0,-0.608156338,6.792241683,0,-43.28788056,-7.21464676,CeFeSi
mp-23446,2.3283,-1.882868172,7.812402838,0.005507578,-97.22851481,-6.076782176,GeBi2O5
mp-696195,2.1589,-3.0151293,4.705601873,0.017243673,-163.3825728,-6.807607199,YSeF
mp-753656,2.9655,-2.123540412,5.378810065,0.097334485,-64.57973113,-5.381644261,SbOF
mp-619092,1.8765,-1.96463868,3.472166288,0,-361.9093232,-6.031822053,K2Fe2As2O9
mp-4888,3.337,-2.923515115,3.797639508,,-110.5282813,-7.894877237,NbPO5
mp-771093,1.4167,-2.230981569,4.386725926,0,-305.7303014,-7.27929289,Li3Cr10Fe5O24
mp-554716,3.1012,-2.335578144,3.422795449,0.030886209,-184.3613091,-5.761290908,NaSbCO2F3
mp-505344,0,-0.357758367,12.89332362,0,-202.6006053,-8.441691888,U3Co7B2
mp-971804,0,-0.111993246,8.778379259,0.012503261,-19.05556925,-4.763892313,ZnNi3
mp-27411,1.1945,-0.024819757,4.063980175,0,-118.2593578,-4.927473242,TlP5
mp-28442,1.5639,-0.544990026,3.747397118,0.00576864,-243.8054662,-4.353669039,TlAs5S8
mp-30141,1.287,-0.986434094,1.925063565,0.056668182,-262.6585246,-6.253774395,Be(N3O7)2
mp-560997,1.9296,-3.238802487,2.864500571,0,-268.980441,-5.603759187,KVF4
mp-1315,2.7919,-1.760041467,2.618786896,0,-8.58883643,-4.294418215,MgS
mp-771936,2.5314,-1.565889152,4.66900935,0.064232577,-182.1905455,-3.503664336,Sr3YI9
mp-36821,0.994,-1.432476841,6.591920599,0.096477141,-68.86052206,-4.918608719,Nd2CdSe4
mp-631340,0,0.605708616,5.626662264,0.605708616,-21.28285435,-5.320713588,SrLaZr2
mp-552588,2.3266,-2.884630586,4.405934192,0.026612864,-78.24702065,-7.824702065,LiNbO3
mp-557406,5.2573,-2.802826636,2.163822918,0.000248875,-812.7779639,-7.525721888,NaB3O5
mp-760046,3.06,-0.650361805,1.222030269,0,-325.7494748,-4.935598102,LiPH21S3N7
mp-766423,0,-1.308292305,2.568055444,0.082885756,-119.1458439,-3.971528128,Li8BiS6
mp-29958,1.4983,-1.418564235,8.330201335,0,-164.3245885,-4.324331275,Hg7(PO5)2
mp-669645,0,-0.410054987,8.17027565,0,-97.78666817,-4.444848553,Nd5In11Ni6
mp-13406,0,-0.513348471,8.949578051,0,-25.9935649,-4.332260817,LaAgPb
mp-686697,1.9647,-3.479521795,5.040551999,0.013034928,-404.7865237,-8.095730475,Na3Sr4Nd3Ti10O30
mp-631565,0,0.679581575,9.844556368,0.893807894,-22.56765196,-5.64191299,GaAs2W
mp-972217,0,-0.308645446,7.244298829,0.013064731,-31.48660562,-7.871651405,Ti2CuTc
mp-756818,3.2482,-2.494942602,5.229876471,0.068592741,-273.6107624,-6.514541961,LiSiBiO4
mp-756597,4.699,-3.159261245,6.403029701,0.026334183,-90.80997231,-7.567497693,Li2HfO3
mp-19052,3.6312,-2.279462722,2.289835056,0.021535753,-45.86957085,-5.733696356,K3VO4
mp-30125,0,-1.152905962,6.391079903,0,-38.33926995,-4.792408744,PrTe2Se
mp-13466,0,-0.600487002,10.42883048,0,-25.11666171,-5.023332342,Sm(SiAu)2
mp-9976,0,-0.338495095,7.911071721,0,-94.27124139,-5.545367141,Ba(Sb3Ru)4
mp-978102,0,-0.725904785,7.689855281,0,-147.9998559,-7.047612187,Pr2Co12P7
mp-714931,1.2506,-2.009641816,2.030831679,0.480836532,-87.51584468,-7.292987057,VO2
mp-20250,0,-0.687126701,6.46237593,0,-80.13451111,-5.008406944,PdS
mp-8607,0,-0.092799933,6.461137163,0,-26.63986258,-3.805694654,Na(Cu2Sb)2
mp-774874,0.2182,-2.666234045,4.030502987,0.104846439,-82.97076462,-6.914230385,Li3Ti2CuO6
mp-772840,3.6732,-3.033952074,5.961630513,0,-326.5462791,-7.421506343,Sm2Ge2O7
mp-771150,0,-1.936475691,2.987349582,0.042449115,-364.642241,-6.286935189,Na6Cu2P(CO4)4
mp-1860,0,-0.742892594,5.409187188,0.013365897,-47.35077554,-5.918846943,LaSi
mp-1857,0,-0.412219437,8.562929967,0,-3.26801109,-1.634005545,YbCd
mp-21003,0,-0.419426155,7.68749597,0,-183.7068138,-9.185340688,Y2ReC2
mp-26341,3.9591,-2.518155592,3.102215919,0.016046324,-148.2790508,-6.739956856,LiSbP2O7
mp-579812,0,-0.597350342,7.784586251,0,-324.976441,-5.416274016,CeNiSb3
mp-557112,3.4397,-2.68360946,3.182922497,0,-293.9178143,-6.389517702,Li4Ga3Si3IO12
mp-29227,0,-1.28145077,5.011862765,0.018045361,-93.41863494,-6.672759639,TlV5S8
mp-752910,0.6006,-1.698756984,5.238093547,0.036622809,-38.40916615,-4.801145769,Na3BiO4
mp-18361,1.1294,-0.466002005,2.736965411,0,-84.13774093,-3.505739205,K7NbAs4
mp-36751,0,-0.893008145,4.689856094,0,-56.80542758,-4.057530541,In5AgS8
mp-675342,4.4465,-3.100802378,7.462235491,0.038321401,-84.80987282,-5.300617051,NdPb4F11
mp-973847,0,-0.453001033,6.359535916,0.008902007,-15.96868267,-3.992170668,La2ZnGa
mp-18127,0,-0.318017114,7.660770633,0,-70.08398794,-5.005999139,Sr(Ni2Sn)2
mp-753211,0,-0.549871215,3.881200953,0.161394311,-21.68744507,-5.421861268,FeCuS2
mp-864600,0,-0.781458896,10.78815477,0,-26.45657356,-6.61414339,TbSnRh2
mp-9092,1.1634,-2.459193861,6.306199063,0.008713227,-127.2961892,-6.364809461,Er2S3
mp-973974,0,1.170647514,1.812137015,1.170647514,-9.51075597,-2.377688993,K3Mo
mp-976765,0,-0.171788161,4.418441576,0.029768493,-7.97597885,-1.993994713,Na3Au
mp-27540,4.9973,-2.110792919,2.353358523,0.027877606,-327.3768734,-5.846015596,Al(HO)3
mp-766292,4.0304,-3.995640816,5.29017694,1.66E-05,-361.0138631,-9.025346579,DyY7O12
mp-9953,0,-1.298457841,9.617072331,0,-71.84375136,-8.98046892,HfP
mp-673761,0,-2.778932537,6.70765276,0.09191989,-206.4764769,-9.832213188,Gd5(RuO7)2
mp-20862,0,-0.291240827,6.936583551,0,-29.92543129,-4.987571882,CoSe2
mp-778375,1.6053,-2.883280868,6.065743656,0.046430344,-395.3302851,-8.984779207,La2Nb2N2O5
mp-22563,1.0492,-2.46852445,6.484759482,0,-146.2655415,-7.313277073,Gd(LuS2)3
mp-1652,0,-0.567316893,9.828833972,0,-15.17120512,-3.79280128,ZnPd
mp-556544,5.021,-3.207302816,2.473213139,0.022163799,-201.7526939,-7.205453353,LiAlSiO4
mp-13413,0,-0.232442887,9.812848259,0,-134.1714515,-4.791837554,ThCu5Sn
mp-756750,3.0482,-3.816927973,6.302674269,0.091613682,-137.5510298,-8.596939361,Dy2TiO5
mp-18910,1.0462,-2.643172972,4.49163348,0.033279184,-213.1111467,-7.611112382,BaV4O9
mp-771981,3.4682,-2.043738925,3.781962582,0.04058204,-94.58204629,-4.299183922,BaLa2Br8
mp-684904,0.5071,-1.219672687,1.715020984,0.039694768,-20.21220379,-3.368700632,K2O
mp-764734,0.0102,-2.426552914,3.511058237,0.082569759,-259.3357307,-7.203770297,Mn3VSb2(PO4)6
mp-505346,0.3684,-3.199902846,6.303551378,0,-209.5727388,-9.526033584,Eu3(BO3)2
mp-21296,0,-0.135138577,11.96830979,0,-43.07681901,-4.307681901,PtPb4
mp-754759,4.4426,-3.939776185,5.0094632,0.050667028,-90.6257896,-9.06257896,Y2O3
mp-29543,3.1376,-1.674765586,2.486761104,0.068888992,-296.2954176,-6.1728212,P2SeO3
mp-1138,8.7164,-3.180880198,2.530431317,0,-9.69028318,-4.84514159,LiF
mp-567770,0,-0.065279619,4.228401092,0.390134779,-131.6575287,-7.314307151,Zr2Al3C4
mp-849953,0.498,-2.196538044,3.922558905,0.048166525,-392.8448085,-7.015085865,Li2Mn3VO8
mp-776323,0.7748,-2.250941806,3.546009988,0.1044902,-140.1520469,-7.007602345,Li2V5NiO12
mp-756930,2.8163,-3.027207724,4.76492856,0.054269614,-97.95419894,-6.122137434,BaCaO2
mp-777855,0.1402,-2.417946254,3.347665248,0.099569376,-273.7346877,-6.843367194,Li4NbFe3Cu2(PO4)6
mp-561260,4.9509,-2.907196462,2.63290218,0,-159.9399009,-6.664162536,Na2CaP2O7
mp-30867,0,-0.541168723,7.298258985,0,-16.68089362,-8.34044681,ScRu
mp-775644,0.8447,-2.057895416,4.038498894,0.083616671,-339.1878993,-7.066414568,V3CuO8
mp-684031,0,-0.15797585,2.700534514,0,-183.4131228,-3.987241799,Mg3(TiAl9)2
mp-542833,2.6968,-2.287959415,4.045358361,0.019538437,-270.8063135,-6.154688943,Zn3(BO3)2
mp-31136,0,-0.39674061,8.662939777,0,-42.45704428,-4.717449364,Lu2NiSn6
mp-4891,5.8318,-3.77661401,7.686657229,0.015694753,-159.5539224,-7.977696118,HoAlO3
mp-559186,3.5551,-2.628235597,6.182467569,0,-191.2187005,-6.829239305,BaBiBO4
mp-505223,0,-3.049864199,6.758924564,0.053422587,-141.5349428,-7.449207518,Ba2Tb2Ti2Cu2O11
mp-686702,2.4763,-3.130240911,1.657130613,0.115784116,-578.4104192,-7.321650876,Ca4Al11Si13(AgO16)3
mp-12927,1.1903,-1.120073172,4.44014333,0,-61.77780983,-6.177780983,Ba(BeN)2
mp-7921,1.8374,-2.447920238,3.940072238,0,-34.88913962,-4.361142453,MgPdF6
mp-20260,0,-0.756192525,13.85559526,0.016082518,-43.65264696,-8.730529392,U(SiIr)2
mp-753623,0.5071,-0.676816064,4.34422766,0.087491902,-73.39542912,-4.07752384,Li2Cu4S3
mp-998787,4.221,-2.215897866,3.932116921,0,-38.42057245,-3.842057245,CaTlCl3
mp-866297,0,-0.569695274,11.84906095,0.00770639,-20.03138997,-5.007847493,EuCdAu2
mp-30449,0,-0.107949198,7.408002286,0.016875166,-9.92571976,-3.308573253,MgCuBi
mp-973538,0,-0.365775524,8.452640287,0.008873625,-15.53576974,-3.883942435,Lu2AlZn
mp-559213,1.4713,-1.942200647,6.295015834,0,-191.0513874,-5.306982983,CsIn3O5
mp-294,1.8558,-3.548249112,7.722333395,0.087215041,-305.325106,-9.541409562,UO3
mp-28087,2.9253,-2.423614597,7.585646481,0.027998058,-110.7043461,-4.612681089,Pb4IF7
mp-560238,0,-2.550847685,3.210380693,0.003518771,-119.432381,-4.265442178,K2CuF4
mp-13695,2.5506,-2.672312538,6.073874828,0,-27.95772191,-6.989430478,SmCuO2
mp-1020122,5.5211,-2.303007551,2.381775397,0,-122.2963078,-6.114815388,MgS2O7
mp-850959,0.1647,-2.497410659,3.128589119,0.028762933,-257.966264,-7.370464685,Li5Mn6(BO3)6
mp-17291,1.8813,-0.666719183,3.571817216,0,-94.13920565,-3.362114488,Na3SiTe3
mp-757282,2.448,-2.339881137,3.999666237,0.066194567,-176.3015437,-6.529686803,Li2Sn5(PO4)4
mp-985829,1.2374,-2.024983613,5.322546772,0,-22.95801572,-7.652671907,HfS2
mp-871,0.1673,-0.510982936,6.32540763,0,-59.62845563,-7.453556954,FeSi
mp-778700,3.6246,-2.924070048,2.997379353,0.066933147,-285.5477364,-5.099066721,Li2FeF4
mp-754110,2.5214,-2.55961429,6.633120553,0,-52.47262045,-6.559077556,SmAgO2
mp-559349,0.3186,-1.948036972,3.183026063,0,-290.4745405,-3.630931756,Sb2ClF17
mp-778256,1.8555,-1.883787487,3.333140253,0.018642508,-172.0733418,-4.301833544,Rb2MgO2
mp-30624,0,-0.733464673,8.527743696,0,-212.313231,-5.055076928,Dy11Sn10
mp-17137,0,-2.250279809,6.369385849,0,-194.7411598,-6.491371993,Ba3ZnRu2O9
mp-2640,0,-1.543643282,7.743424866,0,-12.362593,-6.1812965,TbAs
mp-770988,0.8379,-2.158929826,2.838139312,0,-156.0802591,-6.50334413,Na2CoPCO7
mp-16577,7.0123,-3.904307743,4.490269265,0,-73.98856189,-6.165713491,Li2CaHfF8
mp-752446,2.9667,-1.484141354,2.414395845,0.003454774,-29.068957,-5.8137914,RbNO3
mp-981311,0,-0.37341231,9.839020913,0,-6.15203267,-1.538008168,SrTlHg2
mp-864990,0,-0.210024797,10.37141316,0,-35.86632701,-8.966581753,Mn2AlW
mp-18873,1.8135,-1.816452408,3.531644803,0,-84.5742912,-5.2858932,Rb2NaMnO4
mp-28661,0,-0.593004213,5.39445161,0,-86.24655887,-4.791475493,Ba2Cu3P4
mp-744205,2.6728,-1.826849527,2.650824351,6.91E-05,-290.5481973,-6.053087444,K2Cr2AsHO10
mp-675977,0.3036,-0.529609722,6.932480627,0.046019918,-31.54838894,-3.943548618,AgBiS2
mp-33746,4.275,-2.683654311,3.481019799,0.036040148,-74.01408814,-7.401408814,SrCO3
mp-31089,0,-0.844716423,11.03839562,0,-54.87492303,-5.487492303,Ho2Pd2Pb
mp-569237,1.4227,-0.90798067,5.335332391,0,-381.7305399,-3.534542036,Ga(BiCl)4
mp-1008858,0.0903,-0.944647501,9.427721549,0,-16.67542496,-5.558474987,NdBiPd
mp-9210,0,-1.998797395,7.384536031,0,-92.36023592,-6.597159709,La(PdO2)2
mp-18399,0,-0.508849479,9.601770545,0,-147.454748,-6.143947833,Dy3Ni7B2
mp-27568,0,-0.503207261,4.635057647,0.004739964,-145.8272296,-3.64568074,Ba10Al3Ge7
mp-21580,0.0124,-3.293509835,4.651366868,0,-215.5418726,-5.987274239,EuSnF7
mp-541818,2.1943,-0.576350992,3.310668125,0,-216.5161715,-4.920822079,Rb4(BSe)9
mp-19169,3.0302,-3.185415962,4.639031272,0,-96.39808666,-8.033173888,PrVO4
mp-776740,1.1271,-2.151480999,5.799179273,0.056569017,-66.77627167,-6.677627167,Li2MnWO6
mp-568552,0,-0.412414729,10.27322093,0.000536493,-34.12278056,-5.687130093,LuNi4Sn
mp-19348,2.8557,-3.03922702,3.96674346,0.028588652,-255.032943,-7.500968912,Al4Co(BO5)2
mp-8221,0,-0.864363966,8.83545513,0,-75.16342417,-8.351491574,ZrAsRu
mp-770574,2.117,-1.351645365,4.513182496,0.067245587,-76.95618192,-3.498008269,La2MgI8
mp-627355,0,-1.055774351,10.64793177,0,-158.2497711,-6.593740463,CeGePt
mp-770107,0,-1.558791159,5.179388801,0.064157014,-86.74030578,-6.195736127,Fe2CuO4
mp-17164,3.1948,-2.593213806,4.112547253,,-224.5783241,-7.018072628,NaNbGeO5
mp-6268,3.0454,-3.072442656,2.913882834,0,-481.0309858,-7.516109153,KTiPO5
mp-24638,4.9863,-1.969428099,2.186657195,0.018182037,-207.9598629,-5.620536835,Mg3P2(HO)16
mp-15837,0,-0.665895734,7.478102215,0.006473781,-70.5167551,-7.835195011,Nb5Se4
mp-752503,1.939,-3.826987433,5.675918743,0.024762564,-225.2373184,-9.384888267,CeZr7O16
mp-754370,2.7573,-2.863600619,5.798453732,0.006698982,-114.6020174,-6.366778746,Ba3GeO5
mp-4122,4.4397,-2.6025461,3.356908698,0.01055608,-122.8842011,-6.82690006,GaPO4
mp-433,0,-0.413526374,6.703679216,0,-73.44479862,-4.590299914,DyAl
mp-777898,3.5555,-2.830403277,2.562583963,0.095600338,-242.3953897,-5.049903953,LiFeF4
mp-30849,0,-0.755045435,19.19175613,0,-52.46850249,-8.744750415,TaPt2
mp-972504,0,-0.350156,6.571095025,0.011800653,-15.85425222,-3.963563055,Sm2AlZn
mp-28073,0,-2.686880545,7.516209428,0.054986123,-96.83926506,-8.069938755,UCuO4
mp-754250,4.0962,-3.250605812,7.291639329,0.006957076,-109.2780959,-6.829880994,NaLuO2
mp-981748,0,-0.220691369,9.441470741,0.050213623,-27.99250177,-3.499062721,TbAg3
mp-9886,0,-1.05338195,7.48814976,0,-39.54512822,-7.909025644,La(PRu)2
mp-989532,3.6809,-2.770822924,4.658492682,0,-43.38340249,-4.338340249,Rb2TlInF6
mp-556212,1.756,-3.04921298,5.655895522,0.000133441,-253.522683,-7.922583845,K4U5Te2O21
mp-570441,0,-0.514505688,7.542826952,0,-100.5197087,-4.370422116,Sm4Ga16Co3
mp-780619,4.153,-3.047586736,5.711706175,0.000361733,-163.1566755,-8.157833773,RbTaO3
mp-767146,2.6264,-3.247406117,3.681500492,0.026093388,-407.3972375,-8.147944751,Li7Ti12NbO30
mp-19360,0.2352,-2.804618423,6.221572021,0,-91.76588796,-7.64715733,LuCrO4
mp-1006118,1.8951,-0.635839381,1.941182764,0.001602582,-81.58614576,-4.532563653,P2S7
mp-561351,5.4512,-3.27706336,1.799014322,0.012087656,-569.024103,-7.903112542,SiO2
mp-767151,0,-2.243029869,3.798806238,0.030084973,-175.1256449,-6.254487317,Li2CuNi(PO4)2
mp-18297,1.4942,-0.660633176,5.913181816,0.002364473,-198.3628225,-5.510078402,Ba3(GaN2)2
mp-753712,3.4117,-2.949479936,5.137029857,0,-42.12259678,-7.020432797,YIO
mp-30671,0,-0.400113618,5.649650935,0,-40.05052842,-6.67508807,Ti2Ga
mp-770943,2.3246,-2.317339898,3.464453399,0.09679464,-260.1866269,-6.504665674,Li4TiNi5(PO4)6
mp-850396,0,-2.467926365,3.140879611,0.053212331,-252.5584147,-7.428188666,Li2Mn3(BO3)3
mp-774359,0.7975,-2.876174142,3.051007568,0.049751604,-170.3733896,-5.679112988,V3OF11
mp-615314,0,-0.322514597,5.227343769,0,-66.36707389,-8.295884236,ScCoC2
mp-770559,3.6282,-3.327212584,8.681749345,0,-292.4916733,-8.124768703,Dy2WO6
mp-570377,0.3924,-0.041590428,5.408431687,0.022539906,-30.91069231,-4.415813187,Sn3As4
mp-23085,0,-1.896859474,4.474477163,0,-56.42588106,-5.129625551,Ba2Cu3(ClO2)2
mp-772993,2.2459,-3.169446096,4.086278027,0.084351561,-389.1922019,-8.648715597,Li2Ti7Nb6O30
mp-779885,0.2857,-2.670154776,2.879785533,0.004488767,-316.4878898,-7.192906586,Li2MnV(P2O7)2
mp-570256,1.0992,-0.301271303,5.47423436,0.001559107,-14.14617368,-2.020881954,Ag2HgI4
mp-2578,0,-0.22074864,7.550131025,0,-12.72533266,-4.241777553,NiTe2
mp-12359,0,-0.038864727,7.023189305,0.065917393,-13.39630896,-3.34907724,AgSbTe2
mp-647,0,-1.229776637,6.5588291,0.067080466,-32.07422196,-8.01855549,NbS
mp-764771,0.6793,-2.468457893,3.7352245,0.046087569,-155.9253764,-6.779364193,Li6V5O12
mp-768754,0.6097,-1.967102592,4.214055978,0.094391411,-424.8901883,-5.901252616,LiBi2(SO4)3
mp-31364,0,-0.513404232,4.730859944,0,-137.2432966,-5.27858833,Ce(Al5Ru)2
mp-21499,0,-0.777500067,9.708397618,0,-35.37401504,-3.930446116,YbInPd
mp-759634,0.1737,-2.440679641,5.275233482,0.015253631,-271.6586844,-5.779972009,Sr16Cu8O23
mp-20186,0,-2.499673148,7.614442711,0.077642183,-156.9092476,-7.845462378,PrRuO3
mp-2525,0,-0.246757706,7.58205615,0,-8.10587044,-4.05293522,PrAg
mp-556641,5.1392,-2.601074018,2.686366723,0.003297076,-863.1034875,-6.346349173,Na2LiAlP2H2O9
mp-676206,1.6335,-0.492965971,4.851600193,0.034313378,-99.42473068,-2.485618267,RbAg4I5
mp-20219,0,-0.654957124,6.328027214,0,-59.29013337,-4.940844448,CsUCuTe3
mp-574244,0,-1.025121013,8.256117759,0,-40.41155523,-8.082311046,Ce(PRu)2
mp-1435,0,-0.217984363,5.846060088,0,-37.42437466,-1.559348944,SrZn5
mp-775433,0.5326,-0.914712098,2.487801181,0.034094759,-51.26213477,-4.66019407,Li2Ni(PS3)2
mp-13207,0,-1.99554253,5.89865704,0,-49.65105943,-6.206382429,CeZnPO
mp-510065,1.3561,-1.236224976,5.78799605,0,-47.70004833,-3.975004028,CsNdHgSe3