id,band_gap,formation_energy_per_atom,density,e_above_hull,energy,energy_per_atom,pretty_formula
mp-752402,3.1007,-1.678709591,4.050169299,0.078222139,-79.0285661,-3.292856921,BaSrI4
mp-676987,0,-3.132055857,7.19799936,0.206371771,-477.2416571,-7.34217934,Yb14Ti10O41
mp-867788,0,-0.30770241,17.18058705,0,-38.55031728,-9.63757932,TaGaOs2
mp-30548,5.7706,-2.947929283,4.815191279,0,-129.661008,-5.402542,TlBF4
mp-24742,5.18,-1.95834403,2.141675557,0.000645966,-545.389268,-5.45389268,K2MgH8(SO6)2
mp-758096,1.9248,-2.325777322,3.951103418,0.039400554,-96.9771937,-4.848859685,SbOF3
mp-753863,1.181,-1.607914083,2.524590939,0.0698496,-102.8070389,-5.711502159,Li2Ti2S5
mp-542843,5.5978,-2.192692265,2.227240775,0.008638786,-654.6090661,-6.294317943,MgB2P2H8O13
mp-8934,0.7658,-0.438163364,4.242273279,0,-34.57335573,-3.457335573,Cs2SnAs2
mp-764936,0,-1.898292011,3.184731776,0.111666095,-129.8228037,-5.644469727,Li8(FeO2)5
mp-30571,0,-0.027362917,12.52240765,0,-16.17921744,-2.69653624,Tl2Au
mp-780154,2.7854,-2.257552682,2.645668661,0.080336591,-95.55298264,-5.308499036,Li4FeO3F
mp-759116,0,-3.10160802,6.914880682,0.124384003,-66.92845343,-6.692845343,YbAlO3
mp-28266,0.3453,-0.430955388,5.431193337,0,-34.58119362,-5.76353227,P2Pd
mp-680169,4.905,-2.44220097,2.518791105,0,-1002.9984,-5.306869842,Na21S7Cl(O14F3)2
mp-639228,0,-0.630615753,6.760575471,0,-280.661682,-7.016542051,Tb2Mn3Si5
mp-581635,0,-0.407911849,6.468035114,0.001258202,-466.6385759,-6.666265371,Cs3Te17Mo15
mp-10316,0,-1.87366401,7.110784102,0.018297816,-46.43594112,-5.80449264,CeCdAsO
mp-753081,0,-1.308534607,4.109560575,0.044694173,-53.42062847,-4.85642077,Li3(CuO)4
mp-962065,0.1582,-0.05852882,3.582480022,0.621650935,-7.87133206,-2.623777353,SrCaSn
mp-20777,0,-0.600454408,8.529138349,0,-73.00181151,-6.083484293,SmCoGe
mp-685353,2.3087,-1.768725438,8.562078059,0.007502421,-968.2463644,-5.903941246,Bi15PO25
mp-770728,0,-2.12078967,3.293334683,0.073795858,-283.3175996,-5.902449992,Li3CrO4
mp-21945,0.3814,-0.356231235,8.924355239,0,-273.4514643,-6.836286606,Ge3Ru2
mp-975997,0,-0.243217299,4.638489007,0.019678919,-9.82868795,-2.457171988,NaLi2Pb
mp-3372,4.9943,-2.368260438,3.433270967,0,-155.9238692,-5.568709615,Rb2SO4
mp-8119,0,-0.598476143,6.212105136,0,-32.20743864,-5.36790644,PrCuSi
mp-600428,0,0.073920289,7.81160672,0.073920289,-140.5077649,-7.025388245,Mn3Sn2
mp-13660,0.9137,-1.734995441,3.834303965,0,-32.6352549,-4.662179271,Ca4Sb2O
mp-27358,2.8874,-1.040078822,3.265012054,0,-141.5665061,-5.055946647,Se2O5
mp-20791,0,-0.25568828,6.895856317,0.09845592,-47.30672237,-7.884453728,MnVAs
mp-5334,0,-0.877941468,11.094725,0,-23.12726023,-3.854543372,YbSbAu
mp-673078,0,-2.25736787,3.741435352,0.173101712,-239.2143587,-6.644843296,SnPO4
mp-863408,3.0344,-2.494245751,5.469036728,0.069289592,-547.1629892,-6.51384511,LiSiBiO4
mp-696965,5.7523,-3.559307521,4.332461935,0,-51.43001086,-5.143001086,Cs3TbF6
mp-770711,1.0688,-1.962255754,6.442352158,0.103519693,-167.6422705,-6.985094602,GeWO4
mp-569337,1.8643,-0.596940607,3.753553759,0,-307.8613021,-3.498423887,Na4Si2Te5
mp-28879,1.1444,-0.906509429,2.522200609,0,-65.07445133,-5.005727025,Ca5P8
mp-541785,1.3837,-0.75141731,3.863444607,0,-47.90246063,-4.790246063,GePdS3
mp-1020059,2.763,-0.520526853,4.717113032,0,-76.26808548,-6.35567379,LiGe2N3
mp-770693,1.399,-2.715507654,3.068232806,0.071402673,-314.5724257,-6.553592201,Li3MnAl2O6
mp-17706,0,-0.799465723,6.96201139,0,-126.0031484,-7.875196774,Zr5Ge3
mp-18799,0,-2.669301496,5.619314304,0.001195621,-83.69502588,-6.97458549,YbVO4
mp-606511,0,-0.981990857,11.23383624,0,-124.7827841,-6.239139206,La(GePt)2
mp-23366,0.6409,-1.16593186,3.501325905,0,-95.28256567,-3.402948774,Rb2CoBr4
mp-18089,0,-2.09434302,7.565786623,0.020860166,-189.9355981,-5.935487439,Sr2HoCu3(PbO4)2
mp-1008527,0,-0.445769719,3.126327505,0.310894228,-32.31807783,-8.079519458,B2CN
mp-684653,0,0.018449394,6.753957293,0.131010355,-23.26547154,-3.87757859,Cu2Se
mp-975794,0,0.232560058,0.848095468,0.232560058,-8.52317823,-2.130794558,Li3Be
mp-673837,0.7912,-2.356433058,6.450731374,0.019543054,-171.175346,-5.902598136,Ba8Bi4O17
mp-686712,0,-0.310784064,6.787771105,0.112207222,-27.60533398,-3.450666748,InAgSe2
mp-753626,4.5289,-2.764364147,3.247130143,0.104003064,-171.9471698,-7.164465409,Li2NdPCO7
mp-2574,3.8738,-3.798242191,5.836123703,0.039526107,-56.79015783,-9.465026305,ZrO2
mp-1019508,2.1798,-0.886766165,5.29963574,0.011304276,-51.7441272,-6.4680159,AlGa3N4
mp-841,1.9748,-1.653550377,2.259359738,0,-38.71023438,-4.838779298,Li2O2
mp-9634,2.1819,-1.082010555,2.800308231,0,-40.5295571,-3.377463092,Na3AgS2
mp-30805,0,-0.429695327,6.623370825,0,-21.63897881,-4.327795762,SrNiSn3
mp-865101,0.3515,-0.479802882,4.737794412,0,-10.97180329,-2.742950823,NaLi2Bi
mp-631589,1.323,-0.938988702,2.285114496,0.115966983,-99.21392335,-4.509723789,VN2(Cl3O)2
mp-640880,0,-0.516830935,4.986918043,0.009669192,-143.6574718,-5.130623991,Nd2(Al3Co)3
mp-1009641,0,-0.198367967,7.560417225,0,-13.9899285,-4.6633095,CoTe2
mp-639150,0,-0.339671589,8.300401064,0,-47.66776686,-3.972313905,BaIn4Ir
mp-30963,0,-0.217168598,7.877341871,0,-34.89908177,-1.836793777,Er2Zn17
mp-9910,0.5861,-1.011721779,3.960401546,0,-81.43652929,-4.524251627,K2Pd3S4
mp-557649,2.2231,-3.257569959,2.961185812,0,-364.5696035,-7.595200073,K2Ce(Si2O5)3
mp-675531,1.0109,-1.047741788,5.110299737,0.025071559,-32.71290137,-4.089112671,NaBiS2
mp-2845,0,-0.421655143,12.27576956,0,-22.05497081,-5.513742703,SbPt
mp-9578,0,-0.363314161,3.89858721,0,-26.6638208,-3.809117257,Ba3(AlSi)2
mp-1215,0,-2.045561367,5.012926765,0,-26.157354,-8.719118,Ti2O
mp-625136,3.4329,-1.553303141,4.037210929,0,-26.04290266,-4.340483777,CsHO
mp-649080,1.9333,-1.610543355,2.059455116,0.017931294,-350.7782117,-3.897535686,Ti2SCl12
mp-867912,0.1015,-0.632588144,6.384052403,0,-10.69262779,-2.673156948,Ba2SnHg
mp-15222,1.6771,-0.948278444,4.098098709,0,-75.57944316,-4.723715198,Rb2NbCuSe4
mp-571499,0,-0.586222633,19.15565826,0,-131.3503758,-10.94586465,TaIr
mp-867159,0,-0.087323966,5.402850867,0.00345576,-12.87975879,-3.219939698,SmDyMg2
mp-9682,2.3407,-1.080328686,3.012756223,0,-103.1764272,-3.684872399,Na3AlSe3
mp-21029,0,-0.492169156,5.8930162,0,-13.71462221,-3.428655553,Li2InPd
mp-27375,1.1909,-0.557300566,6.738882262,0.02437403,-50.03229759,-2.274195345,Tl4HgI6
mp-21887,0,-0.785525639,8.559284673,0,-45.15501833,-5.017224259,NdInPd
mp-763983,1.2326,-2.673810136,4.190155554,0.003484006,-134.8112016,-7.489511201,V2O3F
mp-769052,0,-1.985660928,7.487649891,0.080698953,-248.1461989,-6.530163129,Bi4(BO4)3
mp-757290,3.8907,-1.518430059,1.917581673,0.008091045,-490.7085905,-5.111547818,MgH12SeO10
mp-505465,2.8936,-1.663402904,6.303673999,0,-211.2053178,-5.866814382,As2Pb2O5
mp-558478,1.433,-3.379708401,6.080345228,0,-368.7006977,-7.681264536,La3NbSe2(O2F)2
mp-557293,2.8338,-2.555662649,3.908900793,0,-190.0278351,-5.938369848,Li2CdSiO4
mp-4895,0,-0.687491362,9.791762818,0,-42.29225437,-7.048709062,UTeAs
mp-34196,0,-1.859269537,6.97449029,0.032061558,-241.3034817,-5.745320994,Ca(Sm2Se3)4
mp-1256,0,-0.628039655,8.07598397,0,-12.52351805,-4.174506017,HoGa2
mp-976289,0,-0.197417716,8.788644632,0.032919786,-7.23116273,-1.807790683,NaCd2Au
mp-773502,0,-1.999692645,2.636200386,0.031206555,-145.1262441,-6.596647457,KCoPCO7
mp-29567,0.8537,-0.214046374,4.381024641,0,-54.25396548,-3.390872843,CuSe2Br
mp-30744,0,-0.302195312,20.51773482,0,-44.85568727,-11.21392182,IrW
mp-9567,0.8566,-0.767836402,4.307466368,0,-17.22713803,-3.445427606,Ba(MgSb)2
mp-542618,0,-0.966287934,5.932135414,0.013206779,-323.7238487,-7.357360197,Tl2Mo9S11
mp-976599,0,-0.168261878,10.82052764,0.016191468,-3.49209151,-0.873022878,LiHg3
mp-505685,2.5628,-2.078977825,5.143312274,0.017087612,-508.9596601,-6.696837633,Nb2Te4O13
mp-1474,0,-0.382198396,10.95173834,0,-61.64613777,-8.80659111,Re3P4
mp-29946,2.9055,-1.154550346,4.561034364,0,-64.04256456,-4.002660285,IO2F
mp-698686,0.0293,-2.654712294,3.025403143,0.210516323,-279.9498165,-6.998745413,Na3CaFe4(SiO3)8
mp-558318,4.0952,-3.158336441,3.693043674,0,-581.1047123,-7.263808903,Rb2TbGa(SiO3)4
mp-772749,0.0061,-3.073786374,3.824402672,0.030898877,-427.8679223,-9.103572815,Ti17(NO4)6
mp-30167,0.4892,-0.824714557,4.801335398,0,-103.3802321,-3.692151148,Rb3Os2Br9
mp-1018899,0,-1.068008538,8.141246264,0.008011183,-34.58639048,-5.764398413,PrSbPd
mp-4824,0.9143,-0.398676974,3.454651077,0,-18.43410724,-3.072351207,NaZnP
mp-975059,0,0.399145273,10.44643605,0.399145273,-29.32703136,-3.66587892,MnTl3
mp-676629,2.8693,-4.275010987,9.236387493,0.02913302,-272.9891364,-9.413418498,Sm2Th8O19
mp-772416,2.5061,-2.91619924,3.047605217,0.002120045,-270.3926281,-7.510906337,Li2Ti3Sn(PO4)6
mp-2389,0,-0.099258869,3.91623335,0.0172974,-16.5430842,-2.7571807,NdMg2
mp-31442,0,-0.378242636,6.083683154,0,-15.4277121,-3.856928025,Li2InRh
mp-19871,0,-0.0765591,14.82094421,0,-20.95678498,-3.492797497,PbAu2
mp-21518,0,-0.206530748,7.3446522,0,-31.57559881,-3.508399868,CeMgTl
mp-505179,2.1641,-1.248615468,2.144667399,0.057144122,-119.5398266,-4.59768564,NaH6BrO5
mp-555933,4.2884,-2.541851413,4.273138344,0,-154.569974,-6.440415581,Na2P2PbO7
mp-19015,2.4242,-2.237688404,3.466547834,0.012165869,-148.6280853,-7.431404264,VCrMoO7
mp-542295,0,-2.415202533,5.379192131,0.023737132,-165.2082563,-5.900294869,NaYbGeO4
mp-496,0,-0.362776913,3.377340813,0.003015215,-54.49207372,-4.541006143,SrSi2
mp-676339,3.619,-3.230722575,5.109208378,0.233593543,-480.4230136,-8.896722474,BaTa2O6
mp-849424,1.3984,-2.0562273,3.078492667,0.072337568,-224.1833138,-6.227314271,LiCu2P3(HO5)2
mp-10337,0.7712,-1.265011155,5.987250256,0,-56.47592741,-4.706327284,BaYAgTe3
mp-3534,0.044,-0.088606156,6.013805947,0.023015862,-34.0097159,-3.778857322,Ge2Sb2Te5
mp-34121,0.0334,-0.99572254,3.925839577,0.010463136,-33.8940922,-4.236761525,LiSbS2
mp-756400,0.5674,-2.42945455,7.846220635,0,-80.29145714,-6.690954762,NdBiO4
mp-614,0,-0.882681232,2.168133399,0.020115047,-54.20758242,-4.517298535,NaO2
mp-977565,0,-0.610425613,12.65319136,0.043187256,-17.65228622,-4.413071555,NdBiAu2
mp-34903,1.5073,-0.306552159,2.926203458,0.013006604,-36.54575699,-4.568219624,MgGeP2
mp-2910,6.9378,-3.658510989,2.859641097,0.013234982,-64.98340794,-5.415283995,KAlF4
mp-38194,5.6457,-4.193222025,5.110312763,0.056881807,-24.69401555,-8.231338517,YOF
mp-676260,0,-0.12400853,6.538586187,0.062491038,-44.8989035,-2.806181469,Ag9Te4Br3
mp-16163,1.8172,-3.251319181,7.314836132,0,-398.4882131,-8.301837773,Pr3ReO8
mp-33363,1.9597,-2.175570622,3.213006886,0.008375715,-48.01295272,-6.00161909,LiYS2
mp-7977,2.9092,-2.91100151,6.547707063,0,-51.41715117,-6.427143896,CsSmO2
mp-7823,0,-0.593464148,6.531851012,0.010942543,-42.04891384,-6.006987691,V2NiSe4
mp-29966,3.1443,-0.969936277,1.639205182,0,-66.03698537,-5.503082114,NOF
mp-972244,0,-0.477603044,8.98026097,0.005343017,-15.17026419,-3.792566048,Tm2ZnGa
mp-4202,4.0969,-3.466207633,3.938726937,0,-404.7193137,-7.227130602,BaAl2O4
mp-972981,0,0.013065332,0.884749284,0.013065332,-2.19453798,-1.09726899,K
mp-631418,0,1.08388967,14.14463414,1.456089484,-25.90529897,-6.476324743,CuRe2Cl
mp-8772,0,-0.211366992,2.850115075,0,-89.22262707,-6.863279005,ScB12
mp-734045,0.1748,-1.15910537,4.10587936,0.016309112,-265.2413313,-5.100794833,Cu2H2Se2O7
mp-17281,0,-1.754752744,4.338287367,0,-171.1892354,-6.113901265,Cu2PO4
mp-23758,6.3547,-0.454705849,1.190429899,0.002026013,-47.18015251,-3.931679376,KNa(BH4)2
mp-696989,3.5399,-1.182892522,1.804047977,0.079416826,-211.4689902,-6.219676181,NaPH5C2SN3O4
mp-755245,0,-2.17885674,3.886917903,0.071290686,-87.14943443,-6.224959602,LiCuPO4
mp-677725,1.4896,-3.121932511,6.408394644,0.109585128,-412.7357851,-7.116134226,SrLa11Mg3Ga9O34
mp-640889,0.3841,-0.525901626,7.384697557,0,-119.5384474,-4.269230265,Tm(CuTe)3
mp-9989,0,-0.616638075,7.756325491,0,-73.13229193,-9.141536491,Nb2AsC
mp-30178,0,-0.238426231,4.985415087,0,-148.9334413,-3.818806188,Mg2Al5Cu6
mp-551,0,-0.195397888,4.07968771,0.038427902,-20.01398737,-3.335664562,BaAl2
mp-770690,0.5237,-1.908162074,5.288452485,0.031147313,-70.01772434,-7.001772434,Mn3TeO6
mp-657,0,-0.360568747,8.16132972,0,-10.3123955,-1.718732583,YbZn2
mp-23400,3.415,-1.059695167,4.783841584,0,-118.2456199,-4.547908458,In(IO3)3
mp-11265,0.2466,-0.677201019,4.240256592,0,-39.87155583,-3.322629653,BaCaSn
mp-972495,0,0.037653295,12.89513231,0.121289432,-15.22748708,-7.61374354,USn
mp-973203,0,0.604777203,8.577866026,0.613066831,-20.82527291,-5.206318228,Sb3Mo
mp-21420,0,-0.462855013,7.455766705,0,-34.64336157,-6.928672314,Nd(MnGe)2
mp-696762,5.1055,-1.973987394,3.386974936,0,-189.560682,-5.923771313,TlP2H5O8
mp-861961,0,-0.779199503,9.271396708,0,-26.98062803,-6.745157008,TiZnRh2
mp-510050,0,-0.509943044,10.44225425,0.01346498,-108.3869996,-4.335479983,Dy2In16Pt7
mp-569590,0,-0.850175576,10.59434529,0,-96.760979,-5.691822294,Yb4Sb6Rh7
mp-849511,0.543,-2.44256192,3.907897798,0.047916427,-115.8886074,-7.725907161,VO2
mp-510688,0,-0.735960939,8.441412625,0,-77.28502443,-6.440418703,HoCoSi
mp-28360,1.7082,-1.882697704,2.208795841,0,-80.00398267,-4.000199134,Na3CrCl6
mp-28352,0,-1.023786277,7.919178622,0,-184.0903336,-7.670430566,YSiRh2
mp-975519,0,0.05400182,1.560344823,0.05400182,-0.96253065,-0.96253065,Rb
mp-880,0,0.049990108,7.651186963,0.049990108,-152.4346757,-8.022877666,Pr2Fe17
mp-1570,0,-0.065300098,6.877380213,0,-47.16589237,-7.860982062,YFe2
mp-32758,0,-0.026960049,7.514958392,0.04444842,-18.45545341,-3.075908902,Ag2Se
mp-836,0,-0.337485778,8.079440688,0,-6.57526307,-3.287631535,TbZn
mp-978546,0,-0.496731886,4.634843651,0.090384755,-25.11188493,-6.277971233,Sc3Sb
mp-722941,3.5917,-1.350251927,2.609576705,0.009145569,-230.0283405,-4.259784083,CaZn2H12(BrO)6
mp-862656,0,-0.413790587,5.40822702,0,-87.33441541,-4.366720771,ErAl3
mp-1018080,0,0.402483324,10.76940116,0.406167708,-26.14500418,-6.536251045,CrCo2Bi
mp-775372,1.574,-0.925949983,2.231717136,0.104971804,-188.9062231,-3.373325413,Li5SbS
mp-558568,2.4876,-2.325826132,4.527177497,0,-351.0830903,-5.485673285,Rb2CdSiO4
mp-555273,4.1976,-2.931642982,3.066514059,0.012891691,-237.4376925,-5.935942313,Ca3Ge(ClO2)2
mp-607464,0.6253,-1.584902439,3.800989708,0.004636489,-130.9931138,-5.954232444,Re2Cl5O4
mp-541609,0,-0.714214098,10.09137542,0,-139.564242,-6.978212098,Y2Ge5Ir3
mp-30295,1.1547,-1.236929057,4.142163913,0,-280.9515486,-5.619030972,W6CCl18
mp-23101,1.5007,-2.348643533,7.963545247,,-98.93858552,-7.067041823,Nb2Bi2PbO9
mp-31466,0,-0.640417108,10.47927181,0,-158.6205106,-4.956890956,Er5Bi3
mp-22936,2.3835,-1.808238769,2.779581324,0,-20.44386783,-5.110966958,Ca2NCl
mp-761780,2.6149,-2.34138883,3.422226415,0.096202689,-91.69828783,-6.549877702,LiCoPO4
mp-31095,0,-0.72148756,8.042482086,0,-64.10545078,-6.410545078,Er2FeSi2
mp-20295,0,-1.318192682,5.693336433,0,-212.6490959,-8.178811382,YbEuSi4N7
mp-844,1.1111,-0.944330626,2.606386945,0,-213.0678551,-5.326696378,Ca3N2
mp-19829,0,-0.337631213,7.950002947,0.046006098,-100.9429458,-5.047147289,YbCrSb3
mp-677080,2.7982,-3.309353884,5.597789927,0.003627112,-685.9350645,-8.468334129,K6Ba3Ta12(Si2O13)4
mp-1018012,0,-0.459675743,7.949756984,0.025825392,-29.92840174,-7.482100435,TiFeCoGe
mp-10115,0,-0.693189126,16.26171116,0,-51.51757248,-8.58626208,ThB2Ir3
mp-622295,2.4968,-2.519339188,3.027415672,0.011519209,-334.1309003,-6.961060423,NaMo(PO4)2
mp-16520,0,-0.092022249,6.099277141,0,-56.78675931,-5.678675931,NpAl4
mp-559154,2.1037,-2.984550976,6.054794955,0.005323519,-273.225866,-8.036054881,Ti4Bi2O11
mp-998306,0,-0.929708899,5.245727274,2.75E-05,-15.60912084,-3.121824168,CsPdBr3
mp-34713,0,-1.844550597,6.331615357,0.000917743,-240.4348173,-5.724638506,Na(Pr2Se3)4
mp-6825,3.2076,-1.391682785,5.822459957,0,-423.5583006,-8.145351934,Ho2Si4CN6
mp-23263,2.9251,-2.030504219,4.871831503,0,-35.8713055,-4.483913188,LaBr3
mp-674423,0,-3.343633694,6.094582347,0.034586158,-517.3783743,-7.722065287,Sr20Ta8O39
mp-674320,0,-3.873761489,7.14265443,0.016803031,-258.7555015,-8.625183382,Ce9DyO20
mp-22050,0,-0.130908203,9.280933087,0,-69.16820945,-4.940586389,Hf2In5
mp-555283,0,-0.714352265,6.081031813,0,-268.4755489,-8.389860904,V3S
mp-556516,0.7668,-0.56465562,7.50425406,0.000572305,-89.03055361,-3.297427911,Tl2S
mp-1018683,0,-1.560100501,7.699011511,0.01775884,-32.52948845,-5.421581408,DySe2
mp-554947,5.4139,-2.92341407,2.810686612,0.007823357,-304.8708272,-7.25882922,NaSiBO4
mp-573891,0.0022,-0.523335973,5.29187182,0,-57.42776985,-3.190431658,K2Ag4Se3
mp-27181,1.4392,-1.304849315,3.368241641,0,-68.91382299,-2.871409291,KAuCl4
mp-685120,1.1228,-0.817992465,4.280847183,0.023797874,-176.4373354,-4.410933384,Al2Se3
mp-601210,3.0861,-1.17166152,1.542363697,0.089587445,-294.2708067,-6.130641805,H5C2NO4
mp-770973,1.0016,-2.238507236,3.57297364,0.019369795,-450.453953,-6.256304903,Li24MnCr11O36
mp-768082,0,-2.125757051,2.956646841,0.006459502,-311.0095908,-6.220191816,Na5Ni2P2(CO7)2
mp-763013,1.3917,-2.453826341,4.209964369,0.055698087,-138.6587415,-5.777447563,Fe2OF3
mp-24181,4.6051,-2.556973938,3.198516088,6.34E-05,-106.5709133,-6.660682083,CsGaP3HO10
mp-760075,0,-3.350169229,4.378754757,0.011929127,-440.9961677,-8.999921789,Ti19O30
mp-972784,0,-0.110533848,9.510101063,0.151111832,-73.88576627,-9.235720784,SiTc3
mp-866108,0,-0.195100004,9.584428667,0,-29.1062166,-3.638277075,HfZn3
mp-630511,1.0162,-2.693820043,3.500062167,0.027791535,-85.04251462,-6.07446533,Ca2FeClO3
mp-23513,1.8478,-1.596350493,3.236572399,0,-30.16775784,-3.351973093,K2PtCl6
mp-864970,0,-0.357577069,8.750975905,0,-36.73182842,-9.182957105,MnSiTc2
mp-6844,4.4357,-3.058329693,2.854100011,0,-707.0982683,-7.365606962,KLi3Si12(SnO15)2
mp-779332,2.5867,-2.082043736,3.279778513,0.088614714,-242.3854124,-6.732928121,B2TeO6
mp-766349,3.3672,-1.654073711,3.802144466,0.068469115,-79.71027073,-3.32126128,BaCaI4
mp-866286,0,-0.073889283,5.987271913,0,-5.87973388,-2.93986694,AcMg
mp-754678,0,-3.287579177,8.628537248,0.035316173,-42.89719226,-8.579438452,BaTaO3
mp-28592,4.251,-1.795760509,3.083251252,0.027768183,-48.24480938,-4.020400782,Li7Br3O2
mp-766287,3.0889,-1.597510428,4.13928404,0.099428145,-117.6845302,-3.269014727,BaCa2I6
mp-4718,4.0346,-3.697745911,7.928063228,0.004200339,-111.4253779,-9.285448158,NdTaO4
mp-4974,3.741,-3.932899854,5.882584548,0,-199.5900634,-9.07227561,La2Zr2O7
mp-780194,0,-2.478658077,3.142017245,0.045034551,-340.1554777,-7.394684297,Li3Mn4(BO3)4
mp-770859,0.0768,-1.211648656,4.861788807,0.073413173,-143.0439757,-5.960165654,Mn3Co3(CuO8)2
mp-557679,4.2837,-2.928152629,2.399428257,0.000529061,-729.4178375,-6.753868866,KNaSi2O5
mp-865119,0,-0.377103592,8.798571221,0,-8.23787825,-2.059469563,NaPrHg2
mp-541894,0,-0.571838795,7.835726906,0.001465158,-119.4589298,-5.97294649,Pr2Co3Ge5
mp-2136,2.2239,-1.770826237,5.355849935,0,-119.1522768,-5.95761384,Sb2O3
mp-21876,0,-2.158806607,7.048452376,0.001106105,-190.5193442,-6.350644807,Ba3NaIr2O9
mp-571306,0.2884,-0.762852265,4.00044899,0,-65.96347335,-4.122717084,Ca2Zn2CuP3
mp-605912,1.1353,-1.677308903,2.235628418,0.005194646,-83.51133718,-3.795969872,Al2NiCl8
mp-504341,0,-2.381957641,2.632847711,0.049365541,-233.9535716,-6.8809874,Sb(PO3)4
mp-510133,0,-0.707502133,6.456661284,0,-111.8879283,-7.99199488,Sc(Fe2P)2
mp-771890,1.9869,-1.917638473,3.30958899,0.063382322,-140.9392299,-6.406328633,LiSnAsCO7
mp-850292,5.1993,-1.95398506,3.043006967,0.023485246,-472.1632426,-5.758088324,Dy2H16S3O20
mp-768963,3.3492,-2.792446855,3.214369397,0.074624047,-64.85405552,-4.632432537,SrLaCl5
mp-774609,3.1153,-2.927424104,3.360313027,0.019860755,-190.1118258,-7.041178734,Na5Li3Ti5O14
mp-720110,1.3025,-0.81393004,5.749943191,0,-498.4944428,-5.934457652,KRe3Os3(Se4Cl3)2
mp-680095,2.3417,-0.590391694,5.074500808,0.001745305,-114.4805583,-1.908009305,CdI2
mp-770187,0.4236,-1.94653551,4.807671059,0.081411251,-166.3665487,-6.93193953,Cr3TeO8
mp-29274,1.6916,-2.187199017,3.376111722,0,-122.0820259,-6.782334772,P2PdO6
mp-394,0,-0.249959346,7.23390216,0.010597779,-13.79821343,-2.299702238,CeZn5
mp-622497,0.9519,-2.523508238,4.444063809,0,-254.0470315,-7.938969735,V3O5
mp-14921,1.8609,-2.43367087,4.252485103,0,-155.3433786,-6.754059938,Zn4B6SeO12