id,band_gap,formation_energy_per_atom,density,e_above_hull,energy,energy_per_atom,pretty_formula
mp-24104,4.8580000000000005,-2.803606444050513,2.2243296628538403,0.007467996196580452,-178.29459074,-6.857484259230769,LiAlSi2H2O7
mp-771338,4.6160000000000005,-3.17209770213346,3.612191771479584,0.005905318333333297,-293.97733018,-7.736245531052632,La2P4O13
mp-777220,,,,,,,
mp-767716,2.1676,-2.9428820103205124,2.876230741179602,0.10334460769229993,-391.20896349,-7.5232492978846155,LiVSi3O8
mp-22841,1.9867,-1.6737344582638891,4.250552550015319,0.0,-334.15894863,-4.64109650875,Ba2In2S5
mp-707473,3.6676,-1.933898466191786,3.3814669672565167,0.003089117812484332,-558.43752515,-5.817057553645833,InP(H2O3)2
mp-756452,4.5279,-3.870222123916668,8.042554969499811,0.07495279062499982,-165.65030537,-8.282515268500001,SmDyO3
mp-743882,,,,,,,
mp-616378,0.5537000000000001,-0.9482648705862068,4.281711416862902,0.008586929999999882,-28.4020978,-2.84020978,CsSnI3
mp-25638,,,,,,,
mp-569178,1.2665000000000002,-1.3774752161718755,7.458384791145231,0.0,-19.44578561,-4.8614464025,HoTlSe2
mp-24861,,,,,,,
mp-767556,2.6858,-2.652970171574676,2.3316820632583872,0.024154928080807103,-165.49932339,-7.522696517727272,NaTiPCO7
mp-22694,3.5284000000000004,-2.5107671980697273,5.314086943327411,0.0,-364.74264421,-6.51326150375,LiPPbO4
mp-6110,3.5102999999999995,-3.0574825609166667,5.401710566351519,0.05182726550000094,-70.02285517,-7.002285517000001,Sr2YSbO6
mp-776762,0.9032,-3.101346944659524,2.94715883308453,0.017446791964285783,-304.97166644,-5.445922615,LiVF5
mp-772489,,,,,,,
mp-770253,,,,,,,
mp-776916,,,,,,,
mp-561018,3.7232,-3.029343721838235,2.5395677055016117,0.0,-252.69922328,-7.432330096470588,Na3Sc2(BO3)3
mp-780210,,,,,,,
mp-763245,,,,,,,
mp-561536,3.5852,-2.763777761736112,2.8395864202585215,0.005595835000003825,-77.81634508,-6.484695423333334,NaMgBO3
mp-560036,5.7349,-3.3590290780285335,2.8738078695409994,0.0,-700.27782926,-7.0027782926,Li2Ca3Be3Si3(O6F)2
mp-850985,4.0655,-2.072059785098294,2.9882439086660777,0.3735617966041716,-305.18361592,-6.3579919983333335,LiFeP2HO7
mp-560792,,,,,,,
mp-761678,,,,,,,
mp-540484,,,,,,,
mp-763260,,,,,,,
mp-850221,2.3277,-1.0647665806253197,1.8141082505237751,0.01513208653368725,-494.29702493,-5.258478988617021,H28RuS2(N3O5)2
mp-699553,,,,,,,
mp-19067,2.2239,-2.05468804108108,3.3451905056990183,0.32744236903716306,-250.0574417,-6.758309235135134,Mg3V6(FeO6)4
mp-540193,1.6166,-2.357804265288609,2.4805771493375537,0.21728755350000292,-151.74371219,-6.897441463181818,LiMnP2O7
mp-625406,3.7573,-2.3071915435157138,4.2812877173328925,0.0023978607142911557,-87.08510859999998,-6.220364900000001,La(HO)3
mp-780181,1.7359,-1.6639985096710537,2.4574616679801555,0.08989049457236309,-479.97703467,-6.315487298289473,Na2Cr4O13
mp-218,3.7823,-3.8714912523333327,6.961765759958781,0.0,-332.23854097,-8.30596352425,Sm2O3
mp-24733,5.6689,-1.8034507938445337,2.232315703012084,0.024375572065207685,-1029.32365945,-5.594150323097827,NaZnP3(H4O5)2
mp-756587,2.3165,-3.4004404320833337,3.819763201389044,0.11152430291666526,-212.70164059,-8.862568357916668,TiO2
mp-3949,1.6929999999999998,-0.10482954922916664,1.6934210025800331,0.0,-218.98445404,-3.421632094375,K7LiSi8
mp-555234,3.7336,-2.4379989576783334,3.9748886023595302,0.0,-51.27220869,-4.2726840575,RbSbBrF3
mp-762920,,,,,,,
mp-773068,4.2911,-3.1716465373544973,3.0024216337491345,0.011880278194446705,-286.56360999,-7.9601002775,LiZr2(PO4)3
mp-30103,0.7890000000000001,-1.1547862568250002,5.161419179977619,0.0,-138.442798,-2.8842249583333337,AuF5
mp-766762,,,,,,,
mp-778879,1.0131,-3.053536345151852,3.34265860577303,0.06932956666666534,-222.15951375,-6.1710976041666665,LiV2OF5
mp-560956,4.0745,-3.1387670916002066,4.039319138985014,2.8099736776666635,-50.45222288,-5.045222288,Cs2KCrF6
mp-764586,,,,,,,
mp-764713,,,,,,,
mp-23507,2.3132,-0.7523986818749999,4.728201956008372,0.0061113525000000566,-49.88019169,-3.117511980625,InSn2Br5
mp-776626,,,,,,,
mp-29542,2.6222,-1.7030698816590906,4.518030269061461,0.004534660227273335,-104.35304918,-4.743320417272726,K4Bi2O5
mp-38695,1.5368000000000004,-1.6759547640885415,5.683760589356055,0.01656251874999981,-40.47786193,-5.05973274125,LiTbSe2
mp-14241,1.6511999999999998,-0.4831303228385415,5.858134657481957,0.0,-47.06642573,-3.9222021441666666,Tl2SiSe3
mp-558209,4.8814,-3.3938907916666667,3.2197543676006983,0.03759884910714195,-399.68744106,-7.137275733214286,Ca3Mg(SiO4)2
mp-767464,,,,,,,
mp-850080,,,,,,,
mp-778739,0.3066000000000004,-1.6320447349255949,4.715575230202175,0.10649584062499963,-186.61913487,-5.8318479646875,LiCu5(PO4)2
mp-556004,1.3193,-2.3995890055208333,5.89823133463857,0.008104570234379159,-64.55752844,-5.3797940366666674,Ba3In2Br2O5
mp-766919,0.8109999999999999,-2.146324412456187,3.6643357725032013,0.11345715958333626,-148.13215308,-6.172173045,Li8MnCr3O12
mp-780499,3.0424,-2.4662917527595973,3.19533750678886,0.018302016130951948,-170.92654839,-7.1219395162499985,Li2MnFe(BO3)2
mp-27365,0.7326999999999999,-1.0347072804062498,6.1690716875413525,0.0,-171.73326436,-4.293331609,BaBiSe3
mp-600063,5.6966,-3.2663459688888885,1.6690951415433448,0.01165170027777762,-569.13022798,-7.904586499722222,SiO2
mp-849718,2.4331,-3.2235237815277786,3.511726958091706,0.02211938788886592,-724.61101987,-8.05123355411111,Na2Ti4O9
mp-764277,,,,,,,
mp-39260,4.105,-3.018664218306824,2.7740586611282336,0.02676931000000149,-278.0419229,-6.178709397777778,Na2CaPO4F
mp-686296,3.2017000000000007,-3.0842130179999985,5.993008057652558,0.0,-653.77605404,-8.1722006755,CaGd2Zr(GaO3)4
mp-22766,2.0006,-2.4043781985714294,5.367326246976253,0.0,-82.63227892,-5.902305637142858,CaIn2O4
mp-32479,,,,,,,
mp-24646,5.7884,-2.531392441046456,2.7374848740625626,0.0037656329600723733,-240.60937962,-6.683593878333332,NaAlBP2H3O10
mp-558349,5.0449,-3.3112312475702037,4.574135564279564,0.0,-295.14480907,-7.027257358809524,Ba5P3ClO12
mp-9127,2.8624,-2.387056896388889,5.3574515530087075,0.0,-57.13447488,-6.3482749866666675,Ba(SbO3)2
mp-626851,1.8555,-1.2540463260300003,3.191628666429128,0.30309791532257346,-162.37058862,-5.237760923225807,Fe4H14O13
mp-764727,2.0835,-2.008372968384889,2.47812116093508,0.04041600433333148,-143.32335326,-4.777445108666667,Li8NiO5F
mp-752405,4.715999999999998,-3.80448449765625,7.018011412306472,0.0228268346874998,-265.20467064,-8.2876459575,Dy2SiO5
mp-3667,3.9783,-1.7256099131632658,1.71821049261015,0.0,-170.35526902,-6.084116750714286,P2S2O3
mp-773439,,,,,,,
mp-636647,,,,,,,
mp-767226,,,,,,,
mp-754822,0.5841999999999992,-2.4747663523809527,4.7251197629914605,0.10214884416666603,-188.50643019999998,-6.732372507142857,Li4Ti3Sn5O16
mp-554833,,,,,,,
mp-14515,2.1050000000000004,-1.4032609987500009,3.638451259285553,0.0,-262.48919525,-4.687307058035715,NaNd(GaS2)4
mp-2530,2.517100000000001,-1.0374044277777774,3.399136515333668,0.0,-10.07335992,-3.35778664,Li2Te
mp-697753,2.8872000000000004,-2.6577439477857148,2.9282877982162363,3.1827058852499968,-282.69917133,-7.067479283250001,Li3Cr2(PO4)3
mp-763825,,,,,,,
mp-849558,0.8327,-2.9063054505837496,3.5839262638540412,0.035935214161459506,-193.86558806,-6.058299626875,Cr4OF11
mp-559878,0.3397000000000001,-1.5777649423333329,4.219231516126494,0.0,-179.46488272,-4.9851356311111115,K2Na2IrO4
mp-17694,4.2272,-3.450885480500001,2.9680868514158028,0.0033935289714372985,-356.36444446,-7.1272888892,Ca5Al6O14
mp-675941,1.6667,-0.6280903956426667,2.3809240099448945,0.0,-74.14463474,-3.707231737,Li7IN2
mp-31107,2.062,-1.6443241446195649,7.606774702315373,0.0,-264.06167788,-5.740471258260869,As2Pb8O13
mp-765819,,,,,,,
mp-23875,0.4636,-1.186387465388889,2.4164101919325054,0.0406950338888894,-77.46934679,-4.303852599444443,CuH4(ClO)2
mp-19921,1.5253000000000003,-1.4756550581249996,8.470751333953688,0.001097952031249072,-21.81913027,-5.4547825675,PbO
mp-11793,0.7755999999999998,-1.2329678801302082,6.9645709053069424,0.0,-82.96233449,-5.185145905625,SmCuSe2
mp-556467,1.5716,-1.4730186944117651,2.947320849438867,0.0,-352.56651325,-5.184801665441177,Rb4Nb2S10O
mp-560186,4.113899999999999,-3.314023618809524,3.8470690489741033,0.016903258452381387,-294.72050765,-7.017154944047619,BaMgSiO4
mp-853133,,,,,,,
mp-765727,,,,,,,
mp-761341,1.1908,-2.96823863375,4.287450536758883,0.03022529999997836,-200.35001075,-8.347917114583334,TiVO4
mp-766918,,,,,,,
mp-559715,4.5943,-2.586434590137844,3.089145966295097,0.006588059644733414,-505.86973908,-6.65618077736842,Li2Cd(PO3)4
mp-33325,0.8680000000000003,-2.195447284940476,4.270009913957937,0.05141190553571473,-363.36226293,-6.488611838035713,Mg(FeO2)2
mp-766275,1.6687999999999996,-1.8052555459051731,7.646559164477026,0.08777126198277417,-167.39181307,-5.772131485172413,Ca2Bi10O17
mp-850305,3.713,-1.5875730736111109,3.9935647405019834,0.0907159600000038,-38.62083738,-3.218403115,SrCaI4
mp-28584,1.5762999999999998,-0.4987851362500002,6.455840921976563,0.0067627770833338366,-65.54900209,-2.731208420416667,Tl2CuI3
mp-554018,5.240499999999999,-3.3592809903571434,3.490985797256024,0.018783684285721414,-400.97044497,-7.16018651732143,Mg3BeAl8O16
mp-766755,,,,,,,
mp-989558,4.7796,-2.8736958713002068,5.345253523030409,0.0,-44.4408071,-4.44408071,Cs2TlGaF6
mp-541956,3.0085,-2.552748022710129,4.311462425828818,0.0,-440.79419838,-6.8874093496875,CsTiAsO5
mp-29373,0.2452000000000005,-0.2192560271666668,4.44915201448332,0.0,-90.75003712,-3.7812515466666663,KAlSb4
mp-579086,1.8229,-3.2190440871233337,4.090013262368731,0.0,-170.61303637,-7.755138016818182,KSrNb2O6F
mp-696651,4.0956,-3.074656994784616,2.6821823114315317,0.0,-141.66459176,-5.448638144615384,K3NbHOF7
mp-762705,,,,,,,
mp-10811,1.9873,-1.2321696186390465,3.7191487036282806,0.0,-93.07352773,-6.6481091235714285,NaSr4(BN2)3
mp-19367,2.8661000000000003,-2.9080785742500006,3.428843855775925,0.0,-148.70766068,-7.435383034,NaCr(SiO3)2
mp-752426,0.6524999999999999,-1.1180489903125008,3.0777769817008283,0.06224517312499955,-65.38423907,-4.086514941875,Li3SbS4
mp-763970,,,,,,,
mp-772529,3.1883,-2.877124920608974,6.835231481203867,0.06821949384615955,-211.52003088,-8.135385803076923,Y2W2O9
mp-779305,2.6808,-2.0812803902083337,3.10343692269964,0.33517927179687396,-199.46575354,-6.233304798125,Li2FeBO4
mp-764482,,,,,,,
mp-559119,1.4664,-1.3612206583924995,2.808366733336245,0.048713037861112696,-115.69802777,-4.8207511570833335,IN2O4F5
mp-9018,3.2221,-2.453860154319728,4.1994444736819485,0.00045496853174320506,-169.55237780000002,-6.055442064285714,LiCdPO4
mp-8181,1.2157999999999998,-1.141086936618666,4.945453625599584,0.0,-31.36131392,-6.2722627840000005,Li2CeN2
mp-764712,,,,,,,
mp-697742,1.0640999999999998,-2.2627474566508035,3.031391031154026,0.13324684725000235,-141.30912178,-7.065456089,MnP2O7
mp-777491,0.9151,-2.556661665488607,2.911562480029548,0.060820686790112426,-556.86183041,-6.8748374124691365,Li3V2P4(HO8)2
mp-776622,,,,,,,
mp-781069,,,,,,,
mp-25734,,,,,,,
mp-763482,2.2631,-2.4987632056887747,3.2228715702382678,0.00987225500000122,-103.06662363,-7.361901687857142,VPO5
mp-28513,4.3473000000000015,-0.8628877793355554,4.236431366576857,0.0,-78.92054866,-4.384474925555555,Pb(ClO3)2
mp-23887,4.965400000000002,-1.6167364957021007,1.7057012380177794,0.014464216483932368,-119.34265434,-5.188811058260869,MgH12SO9
mp-4002,6.4809,-3.7003795033859257,3.4594049139070018,0.0,-54.19226267,-6.021362518888888,Li2ZrF6
mp-972117,3.6077,-2.3874425655833336,4.907402848503527,0.0009785276666667286,-118.02796567,-5.9013982835,SrTeO3
mp-12929,3.6895,-2.8310912430555555,5.5915159285609635,0.0,-86.69079974,-7.2242333116666675,SmAsO4
mp-763601,,,,,,,
mp-763030,,,,,,,
mp-697128,5.2779,-2.2634903045723807,2.2961081863434454,0.004123040138883205,-220.30720054,-6.119644459444443,KCa2P4H11O18
mp-28684,1.9007,-2.284837176108,3.811605682710045,0.0,-441.66280481,-4.4166280481,Sb7Se8F35
mp-555596,3.1497,-1.6567653448666662,2.0221311321575244,0.0,-134.88851967,-4.496283989,K6Si2S6O
mp-769952,,,,,,,
mp-567185,1.3638000000000003,-0.3572147995588236,6.738838600881885,0.0,-161.36924869,-2.373077186617647,SnHg6(As2Br3)2
mp-36940,6.1636000000000015,-0.24822011261866664,1.0452088449808536,0.3803643010000002,-74.39296099,-7.439296099000001,Mg(CN)2
mp-556911,3.3829,-2.7706842291266667,4.067297734527241,0.0,-33.77889999,-5.629816665,FeF2
mp-1554,0.26859999999999995,-0.835438197333333,3.1474624355843366,0.003358935416666764,-35.54745763,-2.962288135833333,KTe
mp-4092,3.512,-2.161364095668402,4.167874088313401,0.0,-140.54495672,-5.856039863333333,SrSeO4
mp-767103,,,,,,,
mp-686718,2.958,-3.2502639963888886,1.7986989711455508,0.1412186286217949,-579.82700605,-7.43367956474359,Sr5Al11TlSi13O48
mp-28501,1.0868,-1.8674825450242856,2.9158380384728333,0.0,-139.90825487,-4.996723388214286,K2(NbCl3)3
mp-566902,,,,,,,
mp-14324,2.4329,-2.0281499005576924,2.446436445885998,0.0,-125.08558339,-4.810983976538461,K2Na4Be2O5
mp-3319,1.1563,-1.6616604040476182,6.010337684448228,0.008981140714282354,-89.77639948,-6.412599962857143,Mg(RhO2)2
mp-762581,,,,,,,
mp-652494,1.3321,-1.142886312058658,5.7135024211450816,0.0,-299.36805209,-6.508001132391303,Cs4Re6S13
mp-25736,,,,,,,
mp-779192,,,,,,,
mp-2469,1.0461,-0.9709456665624998,4.576806365470884,0.0014649050000001829,-6.32108398,-3.16054199,CdS
mp-776933,3.0921000000000003,-2.2306511156395827,3.100587885440849,0.6424643103124996,-153.31790611,-4.7911845659375,LiFe2F5
mp-766208,2.0419,-3.3551040509974737,4.881266776217634,0.010159157196953927,-554.64484638,-8.403709793636363,Ba3LiTi5Nb3O21
mp-770625,2.5105000000000004,-2.6073534563095238,4.454088687544921,0.0006197170089272673,-381.97420952,-6.8209680271428565,Li4Al3Cr3(SbO8)2
mp-673073,3.9962,-2.4880849693235936,3.3781663088939826,0.038295943499993435,-295.81234842,-6.7230079186363625,LiSbP2O7
mp-16116,0.8488000000000002,-1.5016062523177078,5.687868656572652,0.0,-81.02320325,-5.063950203125,RbSm2CuSe4
mp-567780,2.3927,-1.0516642409375,4.309394275102895,0.0,-51.12614132,-3.1953838325,RbSn2Br5
mp-761414,,,,,,,
mp-18258,3.2026,-3.672676207857143,7.610183871567777,0.0,-215.51639344,-7.697014051428572,BaTb2O4
mp-5915,2.7867,-1.0758032792259995,5.403459025081173,0.0,-227.44110328,-5.686027582,TlNO3
mp-23583,0.5781999999999999,-1.7974616300468966,3.3396116154184856,0.0,-117.99509303,-3.277641473055556,Cs4BiSbCl12
mp-557391,4.815,-2.4762510607031247,2.5289332381274443,0.0,-112.13468713,-7.008417945625,Na2Ca2(CO3)3
mp-775202,1.2843000000000002,-2.3738996557773104,3.4568105969131833,0.03335100308823247,-235.11532094,-6.9151564982352935,CrSb3(PO4)6
mp-555194,2.7834000000000003,-2.1262325198658334,5.7544689887559475,0.0,-47.31834849,-3.9431957075,SiHg3(SF3)2
mp-996956,0.5390999999999999,-1.03758942153,4.368258102580672,0.009400681562502731,-39.96126391,-4.99515798875,CuHO2
mp-780288,1.0184999999999995,-2.222731731666666,3.0964763087276546,0.12114545698612122,-182.22298639,-6.074099546333332,Li3Si2(NiO4)2
mp-769769,,,,,,,
mp-542874,5.3046000000000015,-3.201113878666667,3.1118505227213675,0.03667130830555454,-295.94564637,-7.398641159249999,LiAl(SiO3)2
mp-764515,,,,,,,
mp-753541,1.0159,-2.1881303410711106,3.6344657423531284,0.04354118583333033,-49.63822421,-4.136518684166666,LiCuF4
mp-763913,,,,,,,
mp-555211,5.6207,-3.267187163958333,1.5112640386324798,0.010810505208333154,-379.46052935,-7.905427694791666,SiO2
mp-18246,1.4227000000000003,-0.9166094111504702,2.974036334540473,0.0,-76.96001479,-3.4981824904545458,K6MnTe4
mp-21562,0.7092999999999998,-1.5397717794062502,6.685475638188763,0.006524527124999403,-213.11167128,-5.327791782,Sm3InSe6
mp-19245,0.2882999999999996,-2.7351000293730343,6.421554247538992,0.10767825046667134,-74.64168368,-7.464168367999999,BaLaMn2O6
mp-767632,2.0763000000000003,-2.7038452380952385,3.4967603931853533,0.0046693891666684815,-184.07750134,-7.669895889166668,VPO4
mp-779783,3.2011,-2.4486006937756315,3.2689741316781733,0.01622240002974884,-337.51480739,-7.031558487291666,Li4MnFe3(BO3)4
mp-540951,5.3329,-2.822733797681704,2.968031271570207,0.0,-261.09399698,-6.87089465736842,Na2Sr(PO3)4
mp-782643,0.4440000000000002,-2.496847845414982,3.1306963517853106,0.0221636632285378,-258.31774906,-7.380507115999999,Li5Mn6(BO3)6
mp-699266,5.1763,-1.9466186416817333,2.13938190298181,0.0030634959999948923,-545.18007401,-5.4518007400999995,K2MgH8(SO6)2
mp-755391,1.5152,-1.9412669445,3.615630303039471,0.061431514000000575,-45.482165,-4.5482165000000006,BaNa2O2
mp-759172,1.9391,-2.280398944166666,6.766555146573932,0.0028292947916677136,-342.29954846,-7.131240592916666,TaSb3O8
mp-16969,4.6923,-3.873381287343751,7.315483935706661,0.0,-266.72267735,-8.3350836671875,Lu2SiO5
mp-9489,2.4302999999999995,-3.362006124761904,5.194188702006594,0.014466811369043597,-108.88332614,-7.777380438571428,NaSmTiO4
mp-764502,1.6928999999999998,-2.398294471666666,3.283919326668693,0.017721108619578096,-322.99655552,-7.021664250434783,Li3Fe4(BO3)4
mp-851029,0.5381999999999998,-2.311295203809524,4.673514119755219,0.027745002113097602,-182.79981850000001,-6.52856494642857,Li4Ti3Ni3(SnO8)2
mp-740719,3.2604,-1.892078438308276,3.786341738548612,0.0,-623.82152089,-5.377771731810345,Ba3In2(HO)12
mp-571540,4.0185,-1.5413442452288892,2.7002107650806093,0.002747390277777484,-100.69434353,-2.797065098055556,ZnCl2
mp-735530,2.5401,-2.6858160772808395,3.6272949329723287,0.0,-241.48867155,-7.102607986764705,Ba2Fe3P6HO22
mp-774523,2.9263000000000003,-2.447192935285714,3.620582042555188,0.07655519500000274,-260.23293929,-6.505823482249999,Li3Sb2(PO4)3
mp-763971,,,,,,,
mp-868619,,,,,,,
mp-781753,1.2104999999999997,-2.4132332635302203,2.670991952137961,0.08931865634615566,-163.48847532,-6.288018281538461,Li3CuP2O7
mp-560649,2.6642,-1.4154920906392867,2.8430408737986266,0.0,-207.46335153,-5.18658378825,KLa(PS3)2
mp-5694,2.3055000000000003,-2.1806182203125006,4.6161227068862605,0.0,-21.56308449,-5.3907711225,NaHoS2
mp-769207,3.0825000000000005,-2.004500407570466,4.4979374204941935,0.07864419352940022,-216.8887526,-6.379080958823528,Y2(SeO4)3
mp-554083,2.8585,-2.1602673446590925,4.544434405469385,0.0,-263.91218651,-5.998004238863637,BaZnAs2O7
mp-769878,,,,,,,
mp-756142,2.4279,-4.222676256312502,8.678282952525988,0.0316394993124991,-186.58848168,-9.329424084,La2Th5O13
mp-29537,1.0552,-0.39808071175666654,1.8770085986674492,0.0,-31.79043823,-2.649203185833333,Cl2O
mp-771205,,,,,,,
mp-29577,3.0454,-0.8679843421551722,3.5162013702951933,0.02424040145833306,-49.44579368,-4.120482806666667,CsBrO4
mp-19435,1.6900999999999995,-1.701434978333333,5.9008780903345635,0.11401577916667892,-79.48044936,-6.623370779999999,CoMoO4
mp-721217,5.0961,-2.3843209391640667,2.208614183862794,0.030841392115386945,-320.97069372,-6.17251334076923,K2P2H2O7
mp-571582,0.6522000000000001,-0.4022960636111112,6.946096127149844,0.0,-80.24793337,-2.2291092602777782,TlHg3Sb2Br3
mp-40161,5.0441,-3.2623080253174614,4.260699028826203,0.0,-294.27196042,-8.174221122777778,NaHf2(PO4)3
mp-743660,,,,,,,
mp-23097,1.7286,-1.6988184957266663,3.2003708412904444,0.0017635447222250633,-42.24423365,-4.693803738888889,K2Os(Cl2O)2
mp-771369,,,,,,,
mp-18344,1.5002999999999995,-1.0002117534926471,5.265160684162908,0.0,-176.73730917,-5.198156152058823,Ta2Tl4S11
mp-684817,3.0471,-3.136177282177248,5.041479936659159,0.0,-306.31459542,-8.508738761666667,K2LiTa6(PO8)3
mp-25755,,,,,,,
mp-769793,,,,,,,
mp-29301,2.6305,-1.9585165747596152,4.056829300684221,0.0034545088461452877,-127.00741540000001,-4.884900592307694,Ba4Ga2S7
mp-777567,4.2363,-2.8353220881544448,2.3115178908254044,0.08526665750000184,-242.71482366,-5.05655882625,LiFeF4
mp-704942,2.1007,-2.5817554249974117,2.4369186703450523,1.847833689490676,-323.17935858,-7.025638229999998,Li2Cr(PO3)5
mp-558135,1.6005,-1.8018846766215797,2.1284887577060663,0.0,-210.73742096,-5.545721604210527,Ti4S8Cl6O
mp-25693,,,,,,,
mp-764705,,,,,,,
mp-770173,0.7952000000000004,-1.6578031479624757,4.004210215980273,0.605008547307679,-162.30625093,-6.242548112692307,Mg2Mn3O8
mp-863944,0.7331000000000003,-2.6780939717708345,5.562582398066009,0.18700017395833604,-340.62041377,-7.096258620208333,Ba5V5O14
mp-23046,4.3112,-3.008188014285556,4.509435112480613,0.0,-27.31720899,-4.5528681650000005,SrIF