id,band_gap,formation_energy_per_atom,density,e_above_hull,energy,energy_per_atom,pretty_formula
mp-865471,0,-0.240276785,9.299077705,0,-33.78793485,-8.446983713,VGaTc2
mp-557417,3.3,-1.901838493,2.653801086,0,-181.2265028,-4.118784155,As2Cl3OF5
mp-23614,2.476,-2.6988921,6.786727357,,-203.5904176,-7.271086341,SrNb2Bi2O9
mp-28657,4.9037,-2.152240855,2.183959886,0.013078056,-48.7244558,-3.480318271,Na2MgCl4
mp-2095,0.6676,-0.702880951,4.371662479,0,-59.89886034,-2.994943017,Rb2Te3
mp-7193,4.8454,-3.74479424,6.157769913,0,-90.68001495,-8.243637723,Lu2Si2O7
mp-21175,0,-0.353173137,11.4595814,0.003853826,-27.8553313,-6.963832825,TaGaNi2
mp-753947,4.8579,-3.10279994,7.973282559,0.011233327,-57.25927125,-7.157408906,LuHO2
mp-556821,0,-2.510972344,3.955069431,0,-164.3579809,-6.848249205,RbEu(SO4)2
mp-977441,0,-0.646463042,10.34054731,0,-28.38142392,-7.09535598,MgPaRh2
mp-10552,1.5021,-0.543545089,3.819179285,0.001905416,-83.52513097,-4.176256549,RbBSe3
mp-30746,0,-0.80567665,11.4843773,0,-16.94256434,-8.47128217,YIr
mp-12902,0.9043,-0.900697457,7.457798719,0,-34.56740971,-4.320926214,ErAgTe2
mp-4360,3.513,-2.688622276,4.267199346,0,-39.91579532,-3.991579532,NaCdF3
mp-617632,1.9759,-1.910820406,4.824772923,0,-138.823938,-5.78433075,La3AgGeS7
mp-158,0,0.01343718,5.008022456,0.01343718,-18.53761826,-4.634404565,As
mp-863404,0,-2.237267956,3.604860197,0.069013345,-93.13665658,-4.23348439,Li2Cu2F7
mp-771948,3.7824,-2.904145549,3.490298426,0.018954979,-238.9556938,-4.595301803,Ba3LaCl9
mp-770857,1.1554,-1.85544173,5.662103832,0.054597676,-106.1660819,-6.245063643,V(SbO3)4
mp-4660,0,-0.440705112,8.916326082,0,-32.84685798,-6.569371596,Tm(FeGe)2
mp-556549,2.2745,-1.633309188,8.031755383,0.024285205,-114.5691255,-5.728456277,Bi2O3
mp-23586,1.5339,-0.568513948,6.390795168,0.001302197,-59.55981487,-2.127136245,Hg6S4Br3Cl
mp-16511,0,-0.234623443,3.783330452,0.010038707,-136.0177687,-5.231452641,Mn3Al10
mp-24165,3.9961,-1.715562142,2.439781604,0.009596868,-104.1452308,-5.207261542,Li2H2SeO5
mp-631316,0.109,-0.401403362,4.452629207,0.051806702,-12.57957362,-3.144893405,Li2GaSb
mp-7739,4.7376,-3.639997011,5.230951608,0.026791781,-46.40528805,-5.156143117,Ba2ZnF6
mp-764318,1.7193,-2.6692398,2.891397845,0.000682085,-469.4167415,-7.112374871,Li2VFe(P2O7)2
mp-13036,0,-0.460752756,8.863077902,0.087563114,-19.73632076,-9.86816038,MoN
mp-631558,0,1.019010955,11.82549739,1.486206217,-26.40918333,-6.602295833,Hf2BiB
mp-19410,2.6233,-2.272435053,5.086691517,0,-98.66588136,-7.047562954,ZnCr2O4
mp-1013719,0,-0.486302289,4.316538557,0.473284751,-16.23088358,-3.246176716,Ba3BiSb
mp-1001017,0.0371,-0.535515582,5.59687612,0.058494221,-48.96630044,-3.497592889,Zn(InSe2)2
mp-774239,0,-1.434842628,4.7647622,0.12958747,-157.318082,-5.618502927,Li(CoO2)2
mp-850980,0.1481,-2.468428679,3.132536816,0.052710017,-252.5754933,-7.428690981,Li2Mn3(BO3)3
mp-28353,0.5388,-0.695885532,4.04815143,0.007552777,-140.9421053,-2.93629386,NaTe
mp-6709,4.137,-3.446150787,4.39701341,0,-414.3508806,-7.968286165,Ca3La3(BO3)5
mp-981378,0,0.02492527,3.59417339,0.02492527,-6.48129686,-1.620324215,Sr3Yb
mp-977547,0,-0.432357696,8.450233661,0,-19.30046841,-4.825117103,MgZnRh2
mp-978554,0,0.461804744,16.88162125,0.50559375,-40.20070174,-10.05017544,SmRe3
mp-1019805,5.5005,-2.087549414,2.124269792,0,-490.2693441,-6.128366801,KB(S2O7)2
mp-770873,2.8669,-3.296178104,8.706596493,0.038452496,-291.1553751,-8.087649309,Ho2WO6
mp-13841,0,-1.721976031,6.484657169,0,-46.31181516,-4.631181516,IrF4
mp-588,4.705,-2.94898191,4.242093827,0,-38.17649338,-4.772061673,GaF3
mp-629690,0.5729,-0.813501068,6.836897768,0.001037336,-97.27185724,-4.421448056,Bi2(PbS2)3
mp-20255,0,-0.540029345,5.577715178,0,-76.16729929,-6.347274941,TiCuSi
mp-16433,0,-2.786775119,4.41067685,0.033336954,-112.5579578,-6.253219879,Ca2Ga2O5
mp-752415,1.687,-3.128218787,3.744802008,0.061295526,-64.99878967,-8.124848709,NbO2F
mp-699482,4.2389,-1.493976074,1.471405028,0.015040766,-370.847092,-5.150654055,Na2H20CO13
mp-559940,1.6836,-1.175921237,1.790778581,0.011224137,-151.6469227,-3.791173067,AlS2NCl6
mp-782669,0,-1.90015869,4.761905598,0.060470523,-167.4419144,-6.976746433,Mn4O7F
mp-17777,3.9034,-2.874807333,4.325327095,0,-269.7445569,-6.42248945,Sr5As3O12F
mp-556906,6.9875,-3.30109361,2.504433687,0.007664449,-283.8475594,-5.068706418,Na3LiBe2F8
mp-27852,1.9068,-0.570684614,6.872472474,0,-27.39679172,-1.956913694,Hg3(TeCl)2
mp-774416,0.4184,-2.769513916,2.739059273,0.049167155,-259.3712897,-7.628567345,Ti3Cr(PO4)6
mp-571149,0,-0.009870737,8.124261636,0.014628658,-153.2595982,-8.066294641,Tb2Fe17
mp-22895,1.1363,-0.154563475,5.75719533,0.001631548,-5.92747846,-2.96373923,CuI
mp-4826,0,-2.139432188,4.672732884,0.019509315,-23.1121462,-5.77803655,CaCuO2
mp-10116,0,-0.498017898,16.98711695,0,-54.23003747,-9.038339578,UB2Ir3
mp-29619,0,-0.752644328,5.294436711,0.023929054,-19.04856928,-3.174761547,Sr2Bi
mp-767442,0,-2.136286451,3.459453241,0.057109321,-239.3073407,-6.647426132,Fe3CuNi2(PO4)6
mp-510752,0.1518,-0.786177309,5.000626558,0.168494388,-79.18449664,-4.94903104,CuO
mp-975786,0,-0.199511343,8.202223252,0.01507337,-11.45911811,-2.864779528,Li2TmTl
mp-770470,0,-1.591779564,5.312036922,0.090593817,-126.9748113,-5.290617139,Li5Cu5(SnO6)2
mp-29492,2.6168,-1.341570858,3.538569695,0.006460067,-306.3243421,-5.105405702,S2I2O11
mp-559452,4.3383,-2.578084976,2.632061849,0,-755.842001,-5.905015633,Na5Li(PO4)2
mp-540885,2.8701,-1.334841333,1.659936472,0.01401841,-606.5788154,-4.738896995,Na3PH16(SO2)4
mp-764535,1.4547,-2.35323932,3.190252902,0.064529911,-307.590033,-7.153256581,Li3Fe8(BO3)8
mp-14116,0.7321,-0.978468884,6.765950589,0,-23.81293611,-5.953234028,CuRhO2
mp-28857,2.6938,-1.071483063,6.227449422,0,-166.9657165,-4.63793657,Pb(IO3)2
mp-558340,3.2922,-3.248164464,6.018726462,0,-135.1061246,-7.505895811,Nd5As2ClO10
mp-1009696,0,0.557667076,7.829267788,0.557667076,-15.45707735,-7.728538675,RhC
mp-2266,0,-0.421472713,9.641645529,0.00595082,-5.20045686,-2.60022843,YbAg
mp-540995,3.9847,-3.379963389,3.540338524,0,-312.9548179,-5.795459591,Rb5Nb3OF18
mp-680158,2.8471,-2.4011137,3.647716889,0.068094275,-588.242861,-6.536031789,K2Ti(GeO3)3
mp-556246,2.6118,-2.033039136,3.72481606,0,-166.1243122,-5.93301115,La3Si2S8Cl
mp-6065,0.7279,-2.63859374,6.053917065,0.038670833,-62.27055014,-6.227055014,Sr2GaSbO6
mp-867322,1.7612,-1.896931427,4.800924517,0,-139.238284,-5.801595165,Pr3SiAgS7
mp-675978,3.8347,-2.784418381,5.308308623,0.106855205,-74.09214902,-4.630759314,K2Bi3F11
mp-571474,0,-0.743528699,7.413867457,0,-72.19657932,-5.156898523,Sm4Sn3
mp-752525,1.7692,-2.124008952,4.631489556,0.067007839,-64.29512919,-4.018445574,LiAgF2
mp-23260,3.4431,-1.799355584,4.89618145,0,-82.88623113,-3.453592964,BaI2
mp-761337,0.682,-2.5993395,5.124997292,0.057415877,-209.9022018,-6.996740059,SrCrO3
mp-559307,1.5138,-0.349807597,3.729595453,0.002349402,-213.7399451,-4.11038356,Cu3P4(SI)3
mp-570430,0,-0.210480983,13.02474886,0.024769377,-106.8275551,-8.902296257,TaCo2
mp-249,0,-0.403806655,8.963278615,0.00214975,-29.0198886,-7.25497215,HfAl
mp-761401,1.2468,-2.505700537,3.42759282,0.081912121,-98.77407077,-7.055290769,LiCrPO4
mp-626680,2.3352,-1.513193023,3.443761717,0,-28.22509969,-5.645019938,Fe(HO)2
mp-18365,1.0328,-0.403343129,4.442215177,0,-85.97552464,-3.582313527,RbCuSe4
mp-556500,1.6086,-1.08319095,2.247696344,0,-53.39455108,-3.813896506,NClOF4
mp-21575,0.6879,-1.556054897,6.229988642,0,-214.4017926,-5.360044814,Pr3InSe6
mp-755020,3.5534,-1.581599062,3.755092978,0.088052004,-58.07477989,-3.226376661,SrCa2I6
mp-1373,0,-0.257989619,8.387315684,0.05597232,-71.98824438,-8.998530548,Nb3Ge
mp-675678,1.5015,-1.398786668,6.452590843,0.086295754,-134.656904,-5.179111692,Nd4Ag2Se7
mp-977409,0,-0.255732326,9.773855263,0,-36.4757684,-9.1189421,NbTc2Ge
mp-8911,0.2627,-0.330021014,5.922081503,0.02294052,-22.76489484,-3.79414914,CuAgS
mp-776167,0,-3.625748284,6.526020488,0.000301608,-161.9616536,-8.098082681,CeAlO3
mp-21478,0,-0.47539134,8.503718084,0.038334913,-32.68852616,-6.537705232,U(CuP)2
mp-41734,3.8865,-3.049339262,2.148423652,0,-336.969402,-6.876926571,Na8Al6Si6SO28
mp-777053,0.5508,-2.063816169,4.857052411,0.049608564,-178.9584378,-6.391372778,Li4Mn3Fe2Sn3O16
mp-972924,0,-0.065363011,2.382092048,0.031916478,-77.46871638,-2.671335048,La(Mg4Al3)4
mp-5807,0,-0.705708395,4.36846381,0.030930975,-144.8462984,-5.173082087,Mn(SbS2)2
mp-622558,2.5863,-2.545912918,5.592213912,0,-308.6708625,-7.015246874,DyFeGe2O7
mp-558607,1.8633,-2.142143764,4.362737661,0,-252.8946619,-6.021301475,K3BSb4O13
mp-764508,1.7315,-2.36380181,3.238054359,0.056003014,-312.3159945,-7.098090785,LiFe2(BO3)2
mp-3772,1.3457,-0.623596726,4.968849805,0,-25.29924638,-3.614178054,Cd(GaSe2)2
mp-772624,2.672,-1.431892543,2.985213617,0.075993216,-106.7026612,-6.668916326,Al2CO
mp-720570,5.2633,-1.628537663,1.668431974,0.011061976,-226.7257016,-5.152856854,Na2PH11O8
mp-777580,1.1992,-2.270384804,3.765765193,0.078333815,-126.2995507,-7.429385333,V5O12
mp-510278,0,-3.635813128,7.027652202,0.026218043,-211.3553885,-10.56776942,GdTiO3
mp-10068,0,-1.441425208,7.687442411,0,-53.53386353,-8.922310588,Ce2MnN3
mp-754358,1.8229,-1.36685037,4.537254154,0.006070775,-59.73817844,-4.978181537,ZnSeO4
mp-6761,2.4277,-3.042791367,2.840041265,0,-277.6985324,-7.713848121,NaTi2(PO4)3
mp-772019,4.2427,-2.847320619,3.186751436,0.071815462,-210.0522824,-4.566353966,Ba5La2Cl16
mp-555598,3.2163,-2.929803571,3.410348507,0.002436165,-280.5727337,-7.793687047,KGd(PO3)4
mp-684066,0.222,-2.726738854,2.345676754,0.054397948,-329.7465318,-7.168402865,Li2Ti(PO3)5
mp-29398,2.206,-1.262441968,4.629361662,0,-32.22134107,-3.580149008,Cs2HfI6
mp-972062,0,-0.55344306,12.17882584,0.00937997,-8.82816927,-2.207042318,YbTmHg2
mp-12520,0,-0.418533955,5.943042029,0,-39.07489669,-4.884362086,SrNi2Ge
mp-19304,1.3257,-2.593620342,2.718685311,0.000970877,-251.4424849,-5.714601928,K2MnSO4F3
mp-18633,0.3191,-0.443132927,2.71464729,0,-70.32436991,-2.704783458,K8SnSb4
mp-680167,2.3547,-1.392565949,3.515973849,0.011267501,-222.4668254,-5.561670634,LiMo6Cl13
mp-10266,0,0.015643511,7.573773196,0.023450542,-35.79957546,-7.159915092,ZnFe3C
mp-1728,0,-0.776109342,12.03918888,0,-43.09614537,-7.182690895,LuRh2
mp-772628,2.2652,-2.64191899,2.728697738,0.023711482,-334.158782,-6.961641292,Li3V(BO3)2
mp-13922,0.0191,-0.488578025,4.799969282,0,-39.7506704,-3.312555867,Ba2Ge
mp-644302,3.4362,-1.49191144,2.929117736,0.00228963,-141.6667138,-5.059525492,NaHSeO4
mp-861850,0,-1.226722323,4.62983597,0.038197954,-72.87813604,-4.858542403,Li3CuNi3O8
mp-675563,0,-3.693802774,6.003127361,0.097443503,-277.1966762,-9.239889208,LaZr9O20
mp-12684,0,-0.411755135,5.190966474,0,-37.99281993,-4.749102491,LaAl
mp-757595,5.7458,-1.271965945,1.953256837,0.077228,-351.9285907,-5.49888423,H3SNO3
mp-7176,2.32,-1.802002294,4.566413461,0,-20.130132,-5.032533,RbLaSe2
mp-510315,0,-0.771333464,11.9819586,0,-73.52827348,-7.352827348,Ce(GeIr)2
mp-36088,0,-2.522609212,5.552654276,0.029431319,-92.38118402,-6.598656001,La5SmS8
mp-770612,2.5111,-1.679307513,2.146719253,0.039474361,-437.9530816,-5.213727162,Li4CrH8SO7
mp-19879,0,-0.481462163,9.667319578,0,-91.4802754,-5.717517213,PPd3
mp-998758,2.1963,-1.857833448,8.086718206,0,-129.7716581,-3.244291452,TlHgF3
mp-14636,2.1746,-1.339275294,3.299981763,0,-79.09350835,-4.943344272,Rb2NbAgS4
mp-760382,0,-4.03160633,10.45690479,0.054700557,-59.79859884,-9.96643314,ThUO4
mp-21915,0,-0.346658864,8.218936863,0.01336178,-210.5965822,-5.264914556,Ce3Co4Sn13
mp-11541,0,-0.534224783,13.11886032,0,-20.83266245,-10.41633123,ZrOs
mp-650024,2.9624,-2.08165361,5.440978425,0.00345688,-315.2573938,-6.567862372,RbLiBi2(MoO4)4
mp-530695,4.4577,-4.123820167,4.455372481,0,-557.5472384,-7.336147874,GdZr3F15
mp-571397,0.6789,-2.26201579,4.100577108,0,-396.3003638,-5.214478471,Cs3Tb10C4Cl21
mp-19134,2.9385,-2.889999519,3.236358253,0,-163.6409768,-7.438226218,CaCrP2O7
mp-773505,0.7091,-2.890925475,4.103156628,0.027316306,-118.75878,-7.422423748,Al2CrO5
mp-559093,2.1284,-0.769790364,4.513901783,0,-211.7605844,-4.411678841,Tl2BiP2S7
mp-754041,3.1513,-3.958144591,7.321252443,0.022213058,-181.8365552,-11.3647847,Gd2HfO5
mp-8289,2.7786,-2.774489645,3.42410002,0,-38.73801285,-4.842251606,SnF3
mp-975530,0,0.68198995,2.322926593,0.68198995,-3.40065575,-1.700327875,RbAl
mp-865648,0,-0.552703851,9.743176105,0,-9.88469741,-2.471174353,Yb2CdPb
mp-1016852,0,-2.363220357,6.145127879,0.121437062,-33.89834013,-6.779668026,BaMnO3
mp-2348,0,-0.417937957,9.786638639,0,-21.62247942,-7.20749314,Zr2Au
mp-779318,1.0731,-2.291484671,2.911921551,0.087499313,-263.7327393,-6.940335244,LiCr2P3O13
mp-612918,0,-0.784221188,8.337403576,0.001365945,-75.59372967,-5.399552119,Dy3Ge4
mp-777356,1.8283,-2.015865504,4.160836764,0.097202525,-222.0482353,-5.843374613,Li2Bi2(SO4)3
mp-756389,2.3933,-3.041246341,7.972829969,0.041677746,-129.847722,-7.213762332,Lu2TeO6
mp-976679,0,-0.368203885,8.089508347,0.187519501,-36.86583197,-4.608228996,HoSb3
mp-769482,0,-2.260047969,2.628774875,0.007206744,-318.7869092,-6.930150201,Na3Mn2P2(CO7)2
mp-13200,0,-0.56001592,9.527580099,0,-28.62921259,-4.771535432,LuCuSn
mp-31492,0,-0.612082534,8.133799177,0,-49.73848789,-5.526498654,CeGaNi
mp-685318,2.3058,-1.680131061,8.534162167,0,-950.6690763,-5.79676266,Bi15AsO25
mp-30373,0.5692,-0.254721045,6.321046032,0,-4.79959619,-2.399798095,RbAu
mp-763099,1.168,-2.619820409,3.424894341,0.099569138,-36.80545361,-6.134242268,Li2VO2F
mp-567997,0,-0.699217354,8.019099703,0.02124047,-53.15297701,-5.905886334,Sm3(CoGe2)2
mp-553975,1.908,-1.646028811,3.063278198,0,-168.5024529,-4.212561323,K3Na2InO4
mp-10328,0.0566,-1.856345023,4.807508491,0,-136.9531045,-6.847655223,LaCrS3
mp-8872,2.9322,-2.255909187,3.153660196,0,-77.68494399,-5.548924571,RbNa2BO3
mp-768453,5.9635,-2.821878563,3.80746786,0,-236.2678222,-6.949053595,Lu2(SO4)3
mp-976313,3.4428,-2.324533522,2.512467269,0.019287551,-194.2274673,-6.069608353,K3V(SO5)2
mp-12012,1.6323,-1.145336889,4.314641768,0,-64.9842357,-4.641731121,KPrGeSe4
mp-777529,1.9231,-3.132710392,2.969040313,0.032829488,-143.7925349,-5.325649441,Li2VF6
mp-850,0,-0.521069692,6.557060237,0,-38.90451818,-6.484086363,ScNi2
mp-8864,0,-0.644854458,6.509832688,0,-73.30051512,-6.663683193,Li(Co3P2)2
mp-766955,2.1135,-1.828847688,3.623227359,0.007970574,-435.5371682,-5.807162242,K6Na2MnH24(WO6)6
mp-560314,4.0206,-1.758048864,2.786958487,0,-352.8019216,-5.512530025,In2H10S3O17
mp-698666,0.5568,-2.195062324,4.418178762,0.022287406,-295.975263,-6.166151313,Li2MoO3
mp-775831,1.366,-2.299917399,3.930600844,0.08384741,-68.91167331,-7.65685259,TiMn2O6
mp-572551,1.9396,-2.250701146,4.319947258,0,-96.6187523,-5.367708461,Cs2U(Br2O)2
mp-554119,1.712,-0.910313469,2.912090864,0,-137.4886958,-4.296521743,KSnAsS5
mp-979981,0,-0.463713927,8.102225024,0,-13.57265122,-3.393162805,AcYbGa2
mp-626227,3.8933,-1.496254124,1.700096283,0.001923051,-273.0021893,-5.055596098,Ca(H8O5)2
mp-753532,0.2259,-3.051112568,4.760881122,0.031861305,-114.2088243,-8.157773165,Nb2O3F2
mp-771092,0.6674,-2.553919709,2.946388484,0.05571813,-277.5562561,-6.938906403,Li6Mn3Cr(PO4)6
mp-9468,5.2804,-3.300292942,3.040547209,0,-657.5139671,-7.146890947,KCa9Mg(PO4)7
mp-863377,2.2422,-2.505683202,2.893521167,0.085755244,-156.5960724,-6.52483635,Li2SnP2O7
mp-715517,0.9538,-2.439244161,3.833929544,0.051234187,-370.6842913,-7.722589402,VO2
mp-1018081,0,0.046230922,8.052322773,0.046230922,-34.83127278,-8.707818195,CrFe3
mp-22167,0,-0.410311728,6.86748006,0,-68.14926895,-7.572140994,Zr6Ga2Co
mp-18779,2.8727,-2.006828496,2.669514193,0,-82.50793429,-5.893423878,Na2CrO4
mp-561407,2.4681,-1.370342961,3.32158882,0,-131.6592803,-4.114352509,RbGaS2
mp-770704,3.0377,-2.564594299,2.943620058,0.025273965,-202.853178,-6.339161813,Li2AlFeO4
mp-542374,0.7335,-0.292835352,3.343013267,0,-91.28643955,-2.852701236,KSn
mp-542737,2.3069,-2.511773652,5.127401397,0.029660946,-179.7234293,-6.418693904,TiZn2O4
mp-754199,2.8453,-1.715396811,4.432009578,0.041534919,-39.95452969,-3.329544141,BaSrI4
mp-27533,0,-0.255407999,10.51270197,0.004085291,-92.83365393,-5.460803172,P2Pd15
mp-675879,0.2642,-0.218986122,6.480033998,0.061696729,-29.12885821,-2.912885821,Ag3SI
mp-767737,0,-1.245139205,5.858692253,0.04000633,-161.9083667,-5.782441667,Co9Cu3O16
mp-975512,0,0.185506784,7.295691466,0.2424142,-14.39186986,-3.597967465,InSb3
mp-862924,0,-0.750410213,9.483967194,0,-20.85624548,-5.21406137,PmInPd2
mp-782648,0.9556,-2.523859853,2.547481705,0.072118292,-508.6880352,-7.0651116,LiMn(PO3)4
mp-743528,3.2644,-0.929719778,1.658204554,0.001414839,-456.6457155,-4.963540386,CrH14N4Cl3O
mp-19393,1.1995,-2.624810082,5.737953838,0,-247.4098016,-7.7315563,NdMn2O5
mp-556078,2.9713,-2.203646779,3.124539509,0,-159.9538093,-3.808424031,MgAs2(XeF8)2
mp-568851,0,-0.718739149,9.796336149,0.094709046,-136.6647116,-5.694362984,LuNiGe
mp-7507,0,-0.001176967,2.22922549,0.001811861,-35.49596086,-1.774798043,Sr3Li2
mp-37449,1.624,-2.208908053,5.698776783,0.020682573,-85.29421246,-6.092443747,Nd5AgS8
mp-849482,0.2015,-2.580360965,4.140323591,0.064736336,-236.3680427,-6.565778963,Mn12O7F17
mp-504662,3.1049,-1.609324273,3.951428894,0,-173.2270225,-4.811861736,SbClO
mp-758863,0,-0.594380112,6.991322653,0.064658264,-248.9764401,-6.224411003,Sn2N2O
mp-31258,0,-0.148048649,7.385904819,0,-158.4835855,-7.924179276,Pr2MoC2
mp-776752,1.1088,-2.463024523,3.426126315,0.082685231,-276.3102393,-6.907755981,Li4Mn2Fe3Sb(PO4)6
mp-850556,0,-3.296807766,5.011849855,0.032202121,-312.5071244,-8.928774982,La3Nb8O24
mp-9711,2.8813,-1.352384267,4.517865406,0,-229.7626293,-7.65875431,Ba2Si5N8
mp-862882,0,-0.812210803,9.771503738,0,-16.54484366,-4.136210915,CaPmAu2
mp-16831,2.7095,-3.122520355,2.845351617,0,-276.7717473,-7.907764209,CaTi4(PO4)6
mp-768409,0,-3.649132183,7.147746245,0.056581919,-173.7979941,-8.689899707,TbTiO3
mp-9439,0,-0.725325362,8.675813363,0.001428162,-23.86290487,-3.977150812,YbCuSb
mp-6533,0,-1.458983883,8.137261516,0,-94.08818571,-5.880511607,NaLu(Pd3O4)2
mp-4883,0,-0.814939963,5.702758241,0,-33.73854391,-6.747708782,Ba(FeP)2
mp-22850,0,-0.982917457,3.18519113,0.00064735,-33.91848376,-4.23981047,RuCl3
mp-568005,4.3502,-2.032446005,4.797826695,0,-17.47350228,-3.494700456,CsYbBr3
mp-19989,0,-0.299686027,7.779787077,0,-44.29005379,-4.026368526,Ce2In8Co
mp-569249,0,-0.027143127,17.0165299,0.009973849,-77.89713112,-9.73714139,Ta3Au
mp-722310,0.2023,-1.800780541,3.992983384,0.088499782,-158.2902906,-5.653224664,KErHSe2O9
mp-865252,0,-0.846585711,11.35598761,0,-26.5677944,-6.6419486,TmSnRh2
mp-28626,1.4848,-3.121074003,5.26953867,0,-87.92258907,-7.326882423,LaSO
mp-861980,0,-0.264956422,11.86439859,0,-34.30480901,-8.576202253,PaGaTc2
mp-766268,0,-1.858619662,8.866173692,0.054139076,-182.8387818,-5.540569146,Bi12O16F5
mp-559934,4.1304,-2.563320196,3.202333566,0.001164853,-173.7579839,-6.20564228,LiZnPO4
mp-574272,0,-0.530528618,5.05368165,0.020849499,-152.1607123,-3.170014839,Ca5Pb3
mp-555050,2.9057,-3.225485471,5.340650335,0,-306.1549295,-8.504303598,BaNb2O6
mp-551905,3.258,-1.552514854,4.389482859,0.000915318,-35.88492596,-7.176985192,OsO4
mp-769153,4.3691,-2.453203015,3.282837594,0.074512308,-238.2410176,-5.414568581,Li2SbSO4F3
mp-646586,0,-0.203823056,7.852219825,0.000822538,-94.20869834,-5.233816574,Sm6InCo2
mp-624769,2.5304,-2.425215673,4.156513144,0.001162531,-319.667635,-7.265173522,P2WO8
mp-562366,1.8558,-2.888191846,5.656204103,0,-161.7776405,-7.703697166,Cs2U3(TeO7)2
mp-744472,3.1887,-0.931134616,1.627495426,0,-228.3879403,-4.964955225,CrH14N4Cl3O
mp-6963,0,-0.78652403,7.697016322,0.016903598,-24.46819015,-4.89363803,Ba(SbPd)2
mp-558309,4.0855,-2.960908453,3.562812471,0,-98.77220656,-4.703438408,K4SnSb2F14
mp-10409,1.5191,-1.555338433,5.502994769,0.002408578,-168.8383864,-4.443115431,Ba4Nd2Cd3Se10
mp-11584,0,-0.276280011,9.717123628,0,-41.83588579,-4.648431754,Lu8Te
mp-7652,1.1596,-1.496625829,3.925823246,0,-327.4470068,-4.093087585,Na5TlO4
mp-772668,0.8495,-2.440005701,2.797442057,0.048722068,-178.3161765,-6.858314482,Li3MnSiCO7
mp-15277,0,-0.540428288,6.762603066,0,-186.8924613,-5.191457259,La5Cu19P12