id,band_gap,formation_energy_per_atom,density,e_above_hull,energy,energy_per_atom,pretty_formula
mp-996162,0,-0.497209806,6.294947178,0,-70.37738865,-8.797173581,Nb2AlC
mp-753800,3.6661,-3.304265617,2.854515907,0.011487465,-140.4901314,-7.02450657,NbOF3
mp-18786,3.0599,-3.094881698,3.221022854,0.018087511,-173.62941,-7.234558748,Ca2CoSi2O7
mp-631392,0,0.833441771,13.80840211,1.133455858,-33.19222849,-8.298057123,SrHfRe2
mp-3582,1.0453,-0.146061977,2.407814335,0,-273.1411616,-6.828529039,Mg(BC)2
mp-6730,2.5636,-2.405122445,6.630265267,0,-128.3933077,-5.836059441,Sr3ZnPtO6
mp-771643,3.077,-1.598579309,4.411860982,0.093997692,-115.4878829,-3.207996748,Sr2CaI6
mp-553993,5.6413,-3.249731276,1.492732936,0.03941974,-378.037462,-7.875780459,SiO2
mp-1888,1.015,-0.173852255,3.480716741,0,-191.5834619,-2.993491592,RbGe
mp-3466,4.1342,-3.678356949,6.521625341,0,-79.20562991,-7.920562991,PrAlO3
mp-680551,0,-0.414730395,8.465176619,0.007804585,-222.2701827,-6.174171742,NdNi4B
mp-2223,0,-0.543766038,16.5496022,0,-134.2049965,-5.591874855,GaPt2
mp-567320,1.4397,-1.332067771,5.202881911,0.012054979,-156.1370446,-4.879282645,La5C2I9
mp-570213,0.3619,-0.403105238,4.965554177,0,-8.61986826,-2.87328942,LiMgBi
mp-13772,4.7083,-3.099727951,4.350985288,0,-504.2398901,-7.415292502,Li3Pr2(BO3)3
mp-631387,0,0.594771775,11.21195905,0.712753476,-24.45072736,-8.150242453,SnRuW
mp-30782,0,-0.073488613,2.168974619,0,-49.13519401,-1.694317035,Sr6Mg23
mp-11290,0,-0.391314152,6.028707105,0,-15.59574374,-3.898935935,CaSn3
mp-27265,0.9757,-0.596732041,6.748125617,0,-63.26450353,-3.514694641,AuClO
mp-768995,4.2693,-2.682493609,2.178794405,0.097527292,-259.5082209,-4.99054271,Ba2Y5Cl19
mp-9690,0,-0.337092703,3.821548951,0,-17.24530197,-3.449060394,Ca(AlGa)2
mp-642735,3.3024,-0.465272575,4.106434023,0,-48.61149702,-3.472249787,Rb2H4Pt
mp-1813,0,-0.052389351,2.238174455,0,-32.11827931,-1.690435753,Ba2Mg17
mp-31324,0,-0.290740833,3.818916997,0,-14.88005227,-2.480008712,Li2In
mp-5111,0,-0.545446438,9.077183673,0,-23.7744313,-3.962405217,YbCuGe
mp-979283,0,0.1559441,6.894920655,0.1559441,-30.71313189,-7.678282973,V3Cu
mp-542514,3.2381,-2.327421852,6.682860454,0,-215.5650454,-6.340148393,Ho2Te4O11
mp-684006,0.1964,-0.824657771,6.556344629,0.005497477,-449.7009096,-4.163897311,Ag3TeIO4
mp-28843,0.0522,-0.188382358,6.908857604,0.006765287,-51.9248606,-3.245303788,Tl2SnTe5
mp-975031,3.3379,-0.170534311,1.654931522,0.003096293,-61.27165808,-3.063582904,RbBeH3
mp-799,0,-1.398550292,3.995568542,0,-101.7702844,-7.26930603,V3S4
mp-23276,2.1877,-1.110965456,4.038728091,0,-199.2844872,-3.113820113,InCl
mp-556216,3.0606,-0.943191138,4.283620509,0.01822522,-177.2319773,-4.430799434,HIO3
mp-1016831,0,-0.614189707,11.72554867,0.404555165,-24.91771145,-4.98354229,HgIrO3
mp-765612,1.0386,-2.367871348,6.634484516,0.008104763,-171.5070564,-5.914036427,Ba8Bi4O17
mp-556989,2.0305,-1.139397445,3.995305702,0.000905909,-126.2887245,-3.508020126,ZnS
mp-555865,6.9476,-3.995969006,3.767636161,0.001528724,-281.0549815,-5.735815949,Na2Sr7Al6F34
mp-865152,0,-0.831265772,7.197971614,0,-19.03378513,-4.758446283,MgAlPd2
mp-16452,1.4559,-2.244475712,4.81268942,0,-101.1459553,-5.619219738,BaLa2ZnS5
mp-569158,0,-0.399992901,9.179432734,0.003224274,-167.6326855,-6.984695231,Dy2Co7B3
mp-754138,2.8477,-2.984389052,7.198163501,0,-51.78244109,-6.472805136,CsDyO2
mp-562480,0.7323,-0.886985891,5.275100052,0,-103.8159744,-3.992922091,TlIn5S7
mp-776687,3.8561,-3.045057226,2.719787793,0.042964455,-69.26189636,-4.947278311,Li5FeF8
mp-779274,0,-1.905206958,4.803369596,0.055422256,-167.5630728,-6.9817947,Mn4O7F
mp-864878,0,-0.537383895,11.49569644,0,-20.99240398,-5.248100995,ZrAlAu2
mp-771899,3.2207,-1.815089447,4.570463478,0.035862301,-362.1627721,-6.036046202,Ni4P2O9
mp-770653,2.6749,-2.743548201,4.155261406,0.106290052,-394.8672954,-7.051201704,Sr3W2O9
mp-765807,1.4687,-2.525347345,3.814729072,0.049064165,-132.0578037,-6.950410722,Li4V5O9F
mp-673798,1.0264,-1.64721817,1.953522944,0.007857685,-34.09471997,-3.409471997,K3ClO
mp-20841,0,-2.553282892,6.598058208,0,-65.60662907,-6.560662907,Ba2CaIrO6
mp-561392,2.7184,-1.901346543,2.901912405,0,-230.8562223,-6.412672841,TcSO6F
mp-556666,2.2217,-2.537801932,5.637362975,0.005065475,-215.0185587,-6.719329958,CaBiCO4F
mp-18854,0.029,-2.770575296,5.119567465,0.031153541,-47.29149842,-6.755928346,Sr2CrO4
mp-715,0,-0.67367922,15.35964966,0.08103401,-56.5924268,-9.432071133,ZrIr2
mp-777294,3.7211,-1.97049698,4.231089098,0.032388342,-819.2414115,-6.023833908,Bi2(SO4)3
mp-541361,1.7946,-1.531907435,2.520117644,0.000627839,-181.0156175,-4.525390438,K2RuNCl5O
mp-752573,1.0117,-0.160627995,2.642582299,0,-109.7082454,-3.91815162,Ba(NaSi2)2
mp-573721,1.0421,-0.457054165,3.989293748,0,-37.59410318,-3.759410318,Cs2SiAs2
mp-867695,1.931,-1.231218544,2.695804267,0.036439197,-39.25177537,-5.607396481,Li2WS4
mp-33335,4.2517,-3.365742112,3.473684459,0.026982024,-297.3983812,-7.080913839,MgAl2O4
mp-770840,1.3477,-2.392486826,4.276733829,0.047546893,-91.97783037,-6.569845026,LiVGaO4
mp-17926,0.4414,-0.651417893,8.15466969,0,-132.0017983,-6.600089913,Zr3Ni3Sb4
mp-761711,1.4542,-2.576947796,2.496856691,0.072132941,-123.898036,-6.883224224,Li4V3SiO10
mp-31114,3.5596,-3.629135725,8.216879023,0.00427601,-156.8294048,-7.84147024,Ho3GaO6
mp-631455,0,0.59240671,6.701328697,1.34731352,-20.06425008,-5.01606252,HfSi2Br
mp-774354,3.1486,-3.000446078,2.799696642,0.03527248,-191.8843607,-5.99638627,LiMn2F5
mp-998866,0,2.756836651,3.591640986,2.756836651,-6.46863693,-6.46863693,C
mp-771391,0,-1.824079573,5.070129634,0.095621942,-161.174587,-6.715607792,Mn5Sb3O16
mp-543029,0,-1.534425501,5.464930916,0,-23.70584418,-4.741168836,La2TeI2
mp-12453,1.6113,-1.709392343,5.893639709,0,-89.775042,-5.610940125,HoCuS2
mp-696136,3.3956,-2.422571825,2.655186847,0.140609187,-290.3799811,-5.807599622,Li10Sn(PO6)2
mp-10930,1.2587,-3.39013825,6.997342618,0,-39.36569622,-6.56094937,TbSF
mp-28597,1.216,-0.797397248,3.607745163,0,-239.8999917,-2.998749897,Na5InTe4
mp-13520,0,-0.135570675,3.207975619,0,-18.22931756,-2.278664695,Na2ZnGe
mp-679991,2.1983,-0.457923887,6.125429214,0.004111203,-475.3474948,-5.401676077,CuW3Br7
mp-763923,0.4739,-1.907471991,4.657951823,0.066379134,-94.02052372,-5.223362429,Co3(OF2)2
mp-753775,2.7561,-1.625984116,4.262297027,0.09655871,-19.75903011,-3.293171685,BaCaI4
mp-772159,0,-2.475502696,5.957248949,0.032927981,-197.7939392,-6.820480663,La6Cu6O17
mp-759838,3.2886,-2.521308403,3.643089531,0.030313313,-243.374226,-6.760395167,NaSn2(PO4)3
mp-779692,0,-2.939473398,4.639901119,0.11757381,-133.183314,-8.878887599,Ti7O8
mp-10779,1.8952,-1.720641451,4.818375027,0,-19.64319267,-4.910798168,RbNdSe2
mp-2245,4.6547,-1.312270794,3.117167646,0.000123861,-229.0869432,-8.181676543,Si3N4
mp-561511,0.7067,-0.673967662,6.252637165,0,-74.37597655,-6.197998046,FeAsS
mp-770551,1.1131,-2.586507942,3.243632645,0.04412261,-210.5606876,-6.580021486,Li2MnAlO4
mp-15750,2.0967,-2.615418781,3.766398305,0,-563.8386497,-7.418929601,TaAgP4O13
mp-849514,0.1431,-2.41029318,3.125793158,0.096257851,-241.9623547,-7.561323585,LiMn3(BO3)3
mp-755089,3.9645,-3.814282867,5.504000291,0.023485431,-113.7728038,-9.481066981,ZrO2
mp-705896,2.3731,-2.204374418,3.446506593,0.019627287,-279.9594028,-6.99898507,MgVFeMo3O14
mp-4016,1.7941,-0.970154682,5.385392316,0,-129.656589,-4.051768405,TlGaS2
mp-555155,4.8159,-3.210526987,2.744747455,0,-372.9316541,-7.458633083,KNa2Y(Si2O5)3
mp-764747,0.7545,-2.232702042,4.352744824,0.048512956,-216.8628279,-6.023967441,FeOF
mp-1009823,0,0.116404296,2.375587761,0.126033482,-16.73734081,-5.579113603,BeB2
mp-18911,2.1171,-2.749105064,2.827015501,0,-159.8996575,-7.268166248,LiVP2O7
mp-758291,0,-2.444746876,3.613542511,0.098338693,-341.154699,-6.560667288,Li3Sn3(PO4)4
mp-3527,1.1437,-1.27294579,3.793494381,0,-45.86876654,-3.822397212,Na3AgO2
mp-770256,1.6145,-2.763173292,2.903504172,0.089847145,-294.8917484,-7.021232105,Li4V2(SiO4)3
mp-695890,4.9507,-2.86611853,3.193174389,0.023133196,-443.3357395,-6.333367707,Mg10Si3(H2O9)2
mp-773864,2.2592,-2.760521984,4.879471859,0.065869395,-45.37531747,-7.562552912,TiSnO4
mp-774951,0.686,-2.248713472,4.034233957,0.007206557,-397.8350645,-7.10419758,Li2MnCr3O8
mp-12804,0,-0.655834562,5.372515213,0,-31.71454628,-5.285757713,SmAlSi
mp-571033,0,-0.228195714,6.304108339,0.057423602,-19.44829464,-4.86207366,NiSe
mp-8557,0,-3.588741099,7.532227548,0,-42.04490568,-8.408981136,BaPaO3
mp-763508,1.1285,-1.952253808,2.518113875,0.069793161,-137.5538558,-7.64188088,V(CO3)2
mp-21181,0,-0.400516622,8.084479371,0.074031463,-145.6972018,-6.070716741,YbNiB4
mp-801,0,0.015667981,12.6761706,0.015667981,-87.48209636,-10.93526205,Mo3Os
mp-961720,0,-0.365855138,7.20545384,0.524467359,-21.63986704,-7.213289013,ZrAsRh
mp-570232,4.5211,-2.710627952,3.520047612,0,-76.92611772,-4.807882358,TbCl3
mp-770861,0.668,-2.09977958,2.973071521,0.075722018,-433.7789506,-5.707617771,Li8Cr2O9
mp-6430,0,-3.050721692,7.039144721,0,-78.62613674,-7.862613674,Ba2YReO6
mp-1018696,0,-0.43898058,8.729558475,0,-32.44755857,-5.407926428,EuCdPb
mp-4710,2.6125,-1.680230251,7.015139101,0,-116.2182969,-5.282649859,Hg3(BO3)2
mp-695119,4.4926,-3.160977836,3.126622902,0.005390396,-302.6144324,-7.565360809,Na3Zr2Si2PO12
mp-756473,1.9441,-1.303352145,2.829444958,0.003296765,-58.51912286,-4.876593572,WSCl4
mp-825,0,-1.477527563,6.818041102,0,-44.30286438,-7.38381073,RuO2
mp-770358,1.075,-2.586889078,3.457222623,0.052336237,-260.2014849,-7.227819026,Li3V3(BO5)2
mp-30377,0,-0.661364735,11.98402422,0,-13.52659896,-4.50886632,ErPbAu
mp-743890,2.7422,-2.640768594,3.584547628,0,-233.4000889,-7.529035126,Mn4Si4SnB2(HO9)2
mp-782656,0,-2.028856595,4.626229523,0.048937016,-124.5327754,-5.18886564,Co2OF3
mp-30709,0,-0.260525598,7.154721126,0,-36.44122545,-1.917959234,La2Zn17
mp-567743,0.7509,-1.125786106,3.619356743,0,-267.480838,-3.715011638,AlSb2(TeCl2)2
mp-14209,0,-0.734061953,4.523831016,0,-45.60086659,-5.066762954,LiYGe
mp-560394,3.3366,-1.649209527,5.514563214,0,-210.4163414,-5.260408534,AsPbClO2
mp-4123,1.4473,-1.820972233,6.935829329,0,-21.14708637,-5.286771593,ErTlS2
mp-29078,0.7238,-0.281947637,7.159145325,0.005100766,-143.4801469,-1.992779818,Hg4As2Br3
mp-28922,3.349,-1.419992424,3.001470211,0,-232.1016786,-7.736722618,Ca2Si5N8
mp-10136,0,-0.833291347,8.962410249,0,-91.52324366,-9.152324366,Ti2ReB2
mp-547017,3.042,-2.236356472,3.952491153,0.021130617,-69.13658685,-6.285144259,LiAlAs2O7
mp-3653,1.0375,-2.248540357,5.75700652,0,-110.9087635,-6.161597973,Mg(SbO3)2
mp-567386,1.5523,-0.721485846,5.062407052,0,-47.19603262,-2.622001812,Cs2Cd3Te4
mp-17297,5.7857,-3.004956547,3.024418862,0,-128.602377,-4.763050998,Na2GeF6
mp-1018066,0,-0.296213599,10.15320619,0,-29.52483154,-7.381207885,CrSnRh2
mp-781013,0.8002,-2.559319052,2.909153322,0.022706679,-370.7224736,-6.865230993,Li3V2P4(HO8)2
mp-8756,2.5253,-1.215816442,2.76596196,0,-20.31051142,-3.385085237,KLiSe
mp-558456,1.8293,-0.836015545,6.318511625,0,-92.06666299,-3.836110958,Hg3Se4O5
mp-756953,0,-2.15579473,2.683054505,0.080841023,-146.3431937,-6.65196335,KSbPCO7
mp-570421,0,-0.55558552,6.381169861,0,-186.8577193,-6.673489975,Sm2B5
mp-1018030,2.1861,-2.566243646,3.966832965,0.223450763,-21.32391503,-5.330978758,Sr2SO
mp-30980,4.1331,-3.144294243,4.251370555,0,-115.3431721,-7.208948258,NaYO2
mp-569435,1.6133,-0.399815154,4.45748604,0,-163.0532639,-4.076331596,KBi(PSe3)2
mp-697734,1.1881,-2.337412013,2.581691529,0.075551625,-251.9746684,-6.999296343,MoP4O13
mp-989523,4.5539,-2.812111182,3.728202836,0,-44.66372083,-4.466372083,Rb2NaAsF6
mp-12862,4.0562,-3.768592836,9.679922559,0.002892355,-111.7970875,-9.316423957,LuTaO4
mp-642350,4.3497,-2.893394293,2.523211117,0.060436474,-260.9483656,-7.248565712,KLa(PO3)4
mp-19504,1.8964,-2.319479438,4.723049112,0,-364.622189,-7.011965172,BaV2(CoO4)2
mp-764685,2.222,-2.973397385,2.693690242,0.024026867,-142.5345116,-5.938937982,LiVOF3
mp-977367,0,-0.308173222,10.60736547,0,-19.59316142,-4.898290355,CdInRh2
mp-23784,5.829,-0.886779303,1.142920997,0.019750746,-424.2320275,-4.419083619,NaB(H4O)2
mp-1014261,0,-1.006445559,9.882718053,0.258088815,-40.6719879,-6.77866465,IrO2
mp-631517,0,0.85412024,3.630809903,1.109997645,-6.1224021,-2.0408007,BaBeGa
mp-753202,0.6946,-2.777115481,2.857116763,0.00079379,-63.88317333,-4.563083809,Li5CuF8
mp-780156,0.7241,-2.500174926,3.137523005,0.025998667,-258.0630133,-7.373228951,Li5Mn6(BO3)6
mp-680676,0.8911,-1.742607028,5.175046459,0,-101.3289137,-5.33310072,K2Dy4Cu4S9
mp-2293,0.0529,-0.356259619,4.228941371,0.004004087,-13.36126791,-6.680633955,MnSe
mp-976829,0,0.309884235,6.560862131,0.309884235,-27.83039257,-3.478799071,NaDy3
mp-769280,2.9774,-3.427731129,6.116712295,0.080354347,-203.0950775,-8.462294896,Ca5Ta4O15
mp-17836,3.8754,-3.45696078,6.868728953,0,-269.7160332,-7.492112033,BaNd2BeO5
mp-4539,0,-0.486608233,8.609896654,0,-24.4551799,-4.89103598,Ho(CuGe)2
mp-505701,5.6395,-2.090313243,2.027311959,0,-382.4520278,-5.975812934,NaP2H5O8
mp-752643,0,-3.147020523,3.66312509,0.008830267,-112.1349213,-8.009637236,NaTi2O4
mp-6914,0,-0.471898625,3.47841561,0,-11.95352139,-2.988380348,CaGa
mp-755260,2.4334,-2.378081349,4.882163986,0.026404395,-153.3693655,-6.668233283,Cd4B6O13
mp-22009,1.6025,-0.494776774,4.062930031,0.07351771,-16.36104978,-4.090262445,PbSe
mp-770768,0,-2.176108813,2.874061647,0.06144283,-363.1516353,-6.261235091,Na6Fe2B4AsO16
mp-699575,2.6041,-2.491559066,4.091399528,0.018089258,-572.7736385,-7.159670482,CoSiO3
mp-999391,0,0.034244862,8.179463061,0.13147682,-35.35565233,-8.838913083,NbFe3
mp-23870,3.7974,-0.253581842,1.394380186,0,-5.08530187,-2.542650935,NaH
mp-754853,4.4855,-3.842876829,6.860693746,0,-175.4006093,-8.770030465,CaHfO3
mp-770756,3.5125,-2.618441111,3.355979505,0.05883558,-170.9235999,-6.57398461,Li3SiSnBO7
mp-752514,3.6362,-1.730313627,3.794135965,0.026618103,-80.26706296,-3.344460957,BaSrI4
mp-13546,3.772,-3.063561693,4.856435448,0,-341.8573827,-7.76948597,Y2Ge2O7
mp-971,1.7109,-1.259367455,2.291176594,0,-10.2251862,-3.4083954,K2O
mp-30469,0,0.001224953,10.60144208,0.014445729,-10.15976418,-3.38658806,TlBi2
mp-626483,5.295,-1.587037737,1.805435364,0.033949302,-213.703274,-5.342581851,H4SO5
mp-760468,3.3213,-2.733866263,4.658405005,0.057921428,-138.7080114,-6.935400569,LiSi2BiO6