id,band_gap,formation_energy_per_atom,density,e_above_hull,energy,energy_per_atom,pretty_formula
mp-559826,1.7457000000000003,-1.6983465203125006,5.940442815374139,0.005853143749990686,-89.62398914,-5.60149932125,ErCuS2
mp-765457,2.9514,-2.5057447516703686,3.0493175209048813,0.5616169515000005,-104.72061333,-5.2360306665000005,LiMnF3
mp-7582,2.5767999999999995,-0.7552045887499995,2.9822336411186527,0.014150060555548016,-27.65821026,-4.60970171,GeS2
mp-4809,1.5693,-0.9197172332142856,4.6854881916389415,0.0,-26.68978896,-3.8128269942857145,Ga2HgS4
mp-27138,1.2038,-1.1847315765714284,3.3077934281610943,0.0,-22.23811203,-3.176873147142857,K2PdBr4
mp-770148,,,,,,,
mp-1019604,5.8458000000000006,-2.3323228484076863,3.022444456994443,0.0,-509.63465476,-6.3704331844999995,Cs2B2S3O13
mp-777596,,,,,,,
mp-989405,1.5789,-1.3847157292528738,4.21893191372822,0.0,-30.12012786,-3.012012786,Cs2LiInBr6
mp-850230,0.9958999999999998,-2.303073789398706,4.759939844889237,0.0,-336.5652811,-6.868679206122449,Mn9Zn6Si4(SbO14)2
mp-554955,1.6434000000000002,-3.143916033809167,2.967903037597961,0.0,-42.91157246,-5.3639465575,MgCrF6
mp-676338,1.2957,-2.286654596190476,5.782948984400386,0.021315908214291746,-80.17901485,-5.727072489285715,MgIn2O4
mp-554240,4.087,-3.1573811771323532,2.980635463294507,0.000789841666670732,-242.4694302,-7.131453829411765,NaCa4(BO3)3
mp-867627,1.5659000000000005,-2.0818268009114593,7.9807889231233595,0.0020063585416654206,-292.22647345,-6.088051530208333,Ba4(PtO3)3
mp-571502,1.5866,-0.48555313555555557,5.711864263123266,0.0026189246759251716,-235.93151856,-3.2768266466666667,Ga(BiBr)4
mp-764794,,,,,,,
mp-10694,6.104,-4.3201280958925,2.5118235395444404,0.0,-27.87463189,-6.9686579725,ScF3
mp-780711,,,,,,,
mp-558514,5.1017,-3.4504704180830004,4.115737614473513,0.0,-109.7659852,-5.48829926,RbZrCdF7
mp-669465,2.119,-0.7123617049433327,2.4208055712567367,0.07293375272833291,-136.28629474,-3.785730409444444,Te2S4(NCl3)3
mp-23104,2.5771999999999995,-1.9348423111400002,7.341658082257215,0.0,-48.03891447,-4.803891447,Pb2ClOF
mp-764548,,,,,,,
mp-27996,4.4901,-1.2730780488889575,2.8938519120775306,0.0034434495833348677,-121.403398,-5.0584749166666665,H2SeO3
mp-768738,2.8868,-2.4273221340972224,4.069347905007374,0.05744581666666626,-155.14764929,-6.464485387083333,Li3Bi(BO3)2
mp-759396,3.9798,-2.451175103603176,3.7161465802922367,0.0668990598333492,-408.99289929,-6.8165483215,LiBi3(P3O10)2
mp-4651,1.8489999999999998,-3.561507020083333,4.972062045682436,0.0,-80.2581312,-8.025813119999999,SrTiO3
mp-865606,0.9867999999999999,-1.2740307560695054,4.076684585921954,0.0,-89.85577333,-5.615985833125,CsTaGeS5
mp-754114,3.5107999999999997,-3.7159405280952384,3.949708531502387,0.031031182500015575,-114.69733007,-8.192666433571429,SrSc2O4
mp-10368,0.6158000000000001,-0.4638776807217262,6.274965878862583,0.0,-139.27318541,-5.8030493920833335,CoPSe
mp-764761,,,,,,,
mp-767063,3.5944,-2.38196818329365,2.8795537371153888,0.06191685361111077,-246.92229266,-6.858952573888889,Sn(PO3)2
mp-763723,,,,,,,
mp-735545,2.1756,-1.5188647240718185,2.762017697264239,0.09688308601010309,-165.5970833,-3.763570075,Rb2FeH2Cl5O
mp-17566,0.9387000000000003,-1.0096685229761906,4.471840004660995,0.0,-161.34005721,-4.481668255833333,Ba5P4
mp-771470,,,,,,,
mp-19388,2.8552,-1.9068818869230766,5.024000892291907,0.0,-154.44483766,-5.940186063846154,BaNi2(AsO4)2
mp-776774,,,,,,,
mp-989191,1.8703000000000003,-2.0243322191466664,5.974001054528556,0.1916982956250015,-31.73642369,-5.289403948333333,SbOF
mp-770645,3.9011,-2.4576310260555556,3.540602245402497,0.06328629433333255,-175.1340516,-5.83780172,Li8HfO6
mp-559182,0.8571,-2.3673557887542858,3.6354058362071986,0.0,-424.92569448,-5.311571181,P2IrClF6
mp-675651,2.8434,-1.1563940342559533,2.2364650688955434,0.0,-46.4222431,-4.6422243100000005,MgPS3
mp-625957,3.0344,-2.4082566348638466,5.1973111326237085,0.037511373461532216,-195.40299148,-7.515499672307692,Ta2H4O7
mp-771944,3.7819,-2.864352419654118,3.223394948411001,0.04271896147058829,-158.73825911,-4.668772326764706,Ba3La2Cl12
mp-764702,1.5926,-1.9988458725757567,3.2301518456419034,0.41387354097729734,-296.80638251,-6.7455996025,LiFe2(BO3)2
mp-680493,3.8399,-0.2985319934081252,1.90979749053427,0.07281772093750405,-946.33182861,-7.393217411015625,K3Co(CN)6
mp-22724,0.3046000000000002,-4.194598802592223,3.8449474376847688,0.0,-124.35205989,-6.908447771666667,CeZrF7
mp-754964,4.0733999999999995,-3.878524575833333,8.123750636959565,0.04838568749999972,-117.51738946,-9.793115788333333,HfZrO4
mp-22467,2.0634000000000006,-1.790506017142857,7.688723663217837,0.0,-163.7347123,-5.847668296428572,Sn(PbO2)2
mp-767548,,,,,,,
mp-777027,,,,,,,
mp-771493,,,,,,,
mp-676512,6.555,-3.4024962012140003,2.788721674616159,0.012820294499999996,-50.23050766,-5.023050766,Na3AlF6
mp-25705,,,,,,,
mp-17208,4.2813,-2.5777333350555556,3.0386003444159355,0.0,-199.09333635,-6.033131404545454,K2Li14Zr3O14
mp-645326,1.2291,-0.47695848699999993,4.899825191666856,0.022204933999998566,-233.98435164,-2.9248043955,Al3Bi5I12
mp-22955,3.6479000000000004,-1.3860579960833328,4.300779449287048,0.009031907500000713,-46.20043661,-4.6200436609999995,LiIO3
mp-989637,1.7867000000000002,-0.7133856664280003,6.2058356210643755,0.0,-167.15137164,-8.357568582,BaReN3
mp-571222,4.2579,-1.7858991739655175,3.4852625772386268,0.0,-6.10412726,-3.05206363,CsBr
mp-763500,,,,,,,
mp-30452,0.21389999999999976,-0.6733276799999999,10.444183693464055,0.0,-16.29300806,-5.431002686666666,DyNiBi
mp-868668,,,,,,,
mp-28698,0.4333,-1.5862630649999996,4.661406150265776,0.0,-45.3463519,-5.0384835444444445,Na4IrO4
mp-566800,,,,,,,
mp-567056,,,,,,,
mp-767042,,,,,,,
mp-697769,1.8636999999999997,-2.4759250540756303,2.957115998475626,0.031553663823530975,-244.01298026,-7.176852360588235,Mo(PO3)4
mp-768216,3.7582999999999998,-2.291558411304564,3.8848384915139627,0.050408781666665625,-159.12535397,-6.630223082083333,Li2BiPCO7
mp-759242,3.3472999999999997,-1.0885007115005265,2.202260294087617,0.010717037631575721,-329.00171436,-4.328969925789473,InH10N2Cl5O
mp-769812,,,,,,,
mp-761486,3.4904999999999995,-2.533472912176871,2.9265788093116836,0.023722244285714567,-191.10191206,-6.8250682878571425,LiFePO4
mp-3336,3.3829000000000002,-3.1015869367500004,7.007147011698237,0.038041495142850046,-72.41805623,-7.241805623,LaGaO3
mp-778706,,,,,,,
mp-773929,,,,,,,
mp-546684,0.6831,-1.03306369821875,4.737689125936577,0.009686582999999693,-53.14942663,-5.314942663,PdSeO3
mp-756007,0.6326,-2.0716245835714284,3.82741697623225,0.08349707109374815,-95.96227738,-5.99764233625,Li3Cu3(PO4)2
mp-36029,0.7083999999999997,-1.6305065061458337,6.408092033573496,0.012329080208333565,-41.73591923,-5.21698990375,ErAgS2
mp-772640,3.1283,-2.1594799330555543,6.15087421448807,0.07268741055555772,-238.29047408,-6.619179835555555,Ga2WO6
mp-540693,,,,,,,
mp-773717,,,,,,,
mp-31621,,,,,,,
mp-775199,2.1455,-2.368356167468835,3.4670456427384218,0.011776745000000588,-201.40516156,-7.193041484285715,LiMnVO4
mp-690548,0.8966000000000001,-2.139591152372685,2.7200460504236195,0.11296605069444343,-217.05002386,-6.029167329444444,NaMgFe(SO4)3
mp-989537,4.007899999999999,-2.810666266300207,5.179055473790816,0.0,-43.53410486,-4.353410486,Cs2TlInF6
mp-566771,,,,,,,
mp-780432,3.7947999999999995,-3.6240282916249997,5.047222204758431,0.033431806624999894,-627.85780769,-7.848222596125,La3Al5O12
mp-643004,1.7439999999999998,-0.4756492860244445,2.8845672319004234,0.0,-44.97825485,-3.7481879041666666,SrMg2FeH8
mp-570552,2.4244000000000003,-0.5919958848717949,4.771475086459583,1.0453461538384445e-05,-74.49271134,-1.9100695215384615,CdI2
mp-770401,3.3306999999999998,-2.3084673630952377,4.149973666048612,0.05701969666664919,-161.503006,-6.729291916666667,SbPO4
mp-28204,4.5889999999999995,-1.4733764865225865,2.551953439160362,0.0,-232.94695486,-4.853061559583334,CsH7O4
mp-763536,,,,,,,
mp-779866,,,,,,,
mp-17922,5.5021,-3.2246321605357156,2.813456086747013,0.0,-320.06443696,-7.274191749090909,Ca2P2O7
mp-743840,,,,,,,
mp-555721,1.1306000000000003,-1.2333957063951841,4.820051961270618,0.07352154916666809,-391.91726658,-5.443295369166666,Sr4GaN3O
mp-1074,1.3499999999999999,-0.04207701187499957,2.6311463317825914,0.0,-207.61852004,-3.244039375625,RbSi
mp-763425,1.4012,-2.6145198346227017,3.3677105484917376,0.2711089970000007,-105.91936955,-5.2959684775,LiMn2F7
mp-11017,2.2756,-1.139563907967272,2.967863209361924,0.056833672649452716,-63.88321409,-5.807564917272727,KCd(NO2)3
mp-777939,,,,,,,
mp-12455,1.6602999999999994,-1.7033638592708344,6.096141459099665,0.0,-89.33480095,-5.583425059375,TmCuS2
mp-621182,,,,,,,
mp-542888,1.9493,-1.8900025716840279,4.993420225022177,0.0,-137.24761056,-5.71865044,La3AgSnS7
mp-778576,,,,,,,
mp-763123,,,,,,,
mp-771655,,,,,,,
mp-1013548,0.4096000000000002,-1.1730141744759996,3.670962431696931,0.0,-23.94493085,-4.788986169999999,Ca3SbN
mp-763349,3.9690000000000003,-2.7505640694583584,3.2195789068780805,0.3490968660714291,-144.93940419,-5.1764072925,Li2MnF4
mp-779945,,,,,,,
mp-699213,3.9656,-2.394042910978135,3.551941305057296,0.0,-169.92511294,-6.0687540335714285,CsZn2P2HO8
mp-8946,1.7535000000000003,-0.796129754895834,5.171493610560364,0.0,-115.02925389,-4.79288557875,TlBS2
mp-6452,2.9987999999999997,-3.1959597494907417,7.154918452394674,0.0095974437500006,-250.42304591,-6.956195719722222,BaSm2ZnO5
mp-568478,0.26000000000000023,-1.597492992543704,4.315418284936356,0.02392855919753334,-140.11512063,-5.189448912222223,Nb6Tl2VCl18
mp-764138,,,,,,,
mp-1019584,4.605099999999999,-3.43823851625,3.3193026758838884,0.01646601673611059,-299.0815321,-7.4770383025000005,CaAl2SiO6
mp-776437,2.1631,-3.209337263736666,8.164112113252733,0.03387277944445266,-346.86558628,-9.635155174444444,LaTa2NO5
mp-558533,1.4115000000000002,-3.5027545490215384,6.7028854969624305,0.014427226923078962,-200.73438904,-7.720553424615384,Nd3U(ClO2)3
mp-756637,2.5961999999999996,-2.8283425410648144,5.167831861848012,0.02741940185185321,-171.173503,-6.339759370370371,Ba3GeO5
mp-557493,,,,,,,
mp-561102,2.3885000000000005,-1.7893575972500002,8.697008262464653,0.03991160474999944,-113.28753801,-5.664376900500001,InBiO3
mp-768280,5.4084,-3.284471374083332,5.4920949189159,0.006738210333331551,-247.2619747,-8.242065823333332,Sm2B4O9
mp-560773,5.092,-2.203663020875833,2.2893156945450133,0.005293617273555817,-254.60320269,-5.304233389375,K2NaS2ClO6
mp-9321,0.8788,-2.300127801785714,4.933313512420984,0.0,-43.78798051,-6.2554257871428565,Ba2HfS4
mp-763282,,,,,,,
mp-35596,1.3682000000000003,-1.6824620357142845,5.170922398716076,0.0,-87.69662401,-6.264044572142857,Fe2NiO4
mp-1707,3.8159,-0.5135634998971425,3.091623367122039,0.0,-106.45749691,-7.604106922142857,BaN6
mp-772441,2.337,-2.87880559676282,6.870624997398945,0.06653881769231518,-423.12745692,-8.13706647923077,Y2W2O9
mp-559962,5.6815,-3.2521498040277774,1.3449456228015164,0.02584786513888737,-568.10810411,-7.890390334861111,SiO2
mp-18977,3.18,-3.0307175352499995,6.377209990345809,0.0028147690000031034,-70.22569903,-7.022569903,Ba2CaWO6
mp-28156,2.4701,-1.6050665113399998,3.3282132958541695,0.8967181816666692,-60.06829644,-5.00569137,NaGdCl4
mp-755175,5.4924,-3.3637165412499996,3.6643064867988127,0.07201178850000112,-148.18692309,-7.4093461545,Al2O3
mp-774147,,,,,,,
mp-23421,5.478599999999999,-2.6666528101625,5.085426975345557,0.024020750624999643,-65.18118153,-4.073823845625,LiYb2Cl5
mp-567424,1.2016,-0.463026924766667,3.177042463175137,0.0,-211.74012135,-3.5290020225000003,K8NbAs5Pb
mp-753123,0.25529999999999997,-2.5820519282990477,3.491213399097114,0.020564217142855057,-63.34723282,-4.524802344285715,Li2CuF4
mp-771025,2.1619,-2.4906542301736123,3.1248555583370448,0.07916625069443839,-156.92747187,-6.53864466125,Na2SiBSbO7
mp-15590,2.8445,-3.309517957121213,4.965139033456336,0.0010881139772891402,-717.64742717,-8.15508439965909,Sr2Nb2O7
mp-9298,1.6,-1.4861601730952378,8.81156513508208,0.0,-71.24605484,-5.089003917142857,Sr(AuO2)2
mp-542221,,,,,,,
mp-546190,0.33940000000000003,-0.3685653960833335,6.589138636593902,0.018438765249998212,-40.489763,-4.0489763000000005,Ag2O3
mp-778547,,,,,,,
mp-707441,1.8345,-0.8951223086466668,2.7485136541358384,0.0056624015674975325,-219.51194529,-4.573165526875,SnH12Pt(N2Cl3)2
mp-9230,3.0235,-2.23233775834091,3.494650058352785,0.0,-136.89672904,-6.222578592727273,KAlAs2O7
mp-641661,2.5833,-0.8130622518235714,3.2905311475040717,0.007340873392857272,-228.01457177,-2.0358443908035713,XeF6
mp-753287,0.40969999999999995,-2.3668783018749995,5.5171508195934145,0.0,-20.86450966,-5.216127415,CaCdO2
mp-991652,0.6164999999999994,-0.24225019125000014,6.029626825122706,0.0,-35.89118143,-4.48639767875,VCu3Te4
mp-762495,,,,,,,
mp-849459,1.8154000000000001,-2.376212407003889,3.5955074916397107,0.06526763958333515,-67.44659652,-5.62054971,Li2FeO2F
mp-777025,,,,,,,
mp-770546,2.8465999999999996,-2.367592122189102,2.785202004786891,0.382884093000019,-390.7230818,-6.512051363333333,Li2Mn2P2O7F2
mp-541687,2.0915,-1.0763984226473216,3.093453261129523,0.0,-97.52724061,-3.483115736071429,K3GaSe3
mp-758007,5.4657,-2.602952495379507,3.301119366539306,0.0,-380.69047535,-6.563628885344827,Ba2CaP4(H3O8)2
mp-767202,,,,,,,
mp-707391,3.2866999999999997,-1.433634657567585,1.8987552834800159,0.016049572419508884,-866.43870156,-4.922947167954546,Na3AsH24SeO15
mp-557741,2.3152999999999997,-3.023959415241013,7.9763160530756965,0.0,-689.02954621,-6.755191629509804,Ba17Tm16Zn8Pt4O57
mp-774246,1.9967,-2.9812853200357137,4.284270218908699,0.0,-308.79872445,-8.822820698571428,Nb9VO25
mp-8818,0.7624999999999997,-0.861191271952,3.522257397107084,0.0,-25.46928681,-5.093857362,Ca2ZnN2
mp-32009,,,,,,,
mp-23434,0.5622,-1.6733642064618182,1.991594239557423,0.0,-80.05634483,-3.638924765,Al2CuCl8
mp-1020164,4.8522,-2.6549975705815028,2.599721508058879,0.0,-161.81358058,-6.223599253076923,Na3LiP2O7
mp-766256,4.0595,-4.037958636333333,6.853981326704463,0.0032793452500001763,-350.94338113,-8.77358452825,YTmO3
mp-766870,0.5250000000000001,-1.8677178373677237,3.971451045458851,0.06985380508333616,-105.05158851,-7.003439234,Mn5O9F
mp-18990,3.9834000000000005,-2.9634785387197695,3.7449229871141947,0.0,-658.30470707,-7.83696079845238,Ba2Mn(BO2)6
mp-558702,3.4542,-3.0117645587565747,4.569037511764618,0.0,-166.18039132,-5.539346377333334,CsMnF3
mp-653559,1.7175,-0.06368248347966225,3.2082690182961504,0.018253072777779433,-143.04815344,-3.973559817777778,P4Se3I2
mp-31993,,,,,,,
mp-754341,3.1026,-3.0382524323148146,7.323599900341161,0.003860412407408198,-195.37915012,-7.236264819259259,Ho2TeO6
mp-757715,2.6502,-2.200222566249999,8.577492922120243,0.03723002768750128,-255.07933486,-6.3769833715,Tb(BiO2)3
mp-763332,,,,,,,
mp-777559,3.1785,-2.544748718987778,3.0256340313840493,0.37584002666666905,-114.38365097,-4.7659854570833335,LiFeF4
mp-22888,4.5304,-2.0484606850000002,3.226876642364886,0.0,-22.83739574,-3.8062326233333335,CaBr2
mp-643047,3.17,-0.6582216878494118,5.662111495492331,0.0,-73.50038196,-4.32355188,Ba3(H6Ir)2
mp-32468,,,,,,,
mp-868526,,,,,,,
mp-761456,,,,,,,
mp-4602,2.7308000000000003,-3.7769530730681824,6.580928169964133,0.019056512272726422,-192.64995993,-8.756816360454545,Tb2Ti2O7
mp-21949,2.279,-1.4837750505625005,3.6802968779443317,0.0,-262.09105719,-4.09517276859375,K4PbO3
mp-773562,,,,,,,
mp-600052,5.5002,-3.2680246416666665,1.8421931030518919,0.009973027499999176,-474.37591035,-7.9062651725,SiO2
mp-767059,,,,,,,
mp-569910,,,,,,,
mp-863880,0.9729000000000001,-2.0862224568749994,4.1849986292522345,0.07390244968749737,-148.55270308,-6.189695961666666,Li6VFe5O12
mp-773111,4.2082,-2.8383862000320006,3.4044045823132185,0.07592841225000146,-183.73907041,-4.593476760250001,Ba2LaCl7
mp-764790,,,,,,,
mp-865521,2.1804,-1.3087332649999999,4.347721107505154,0.0,-28.65582155,-3.58197769375,LuI3
mp-18540,1.5358,-1.5326772062323675,5.8697526321894475,0.0026329965151523638,-113.10454117,-5.141115507727273,CsEr2Cu3S5
mp-764720,1.8018,-2.0665985591666667,3.2154299505447157,0.3461208543863874,-149.89375036,-6.8133522890909095,LiFe2(BO3)2
mp-772290,1.0933000000000002,-1.2630484779166664,5.171747941566651,0.0,-51.10505125,-4.258754270833333,LiAgO
mp-868000,3.4205,-2.011657518518519,3.9194087688472474,0.07569932157407333,-228.81887076,-4.237386495555556,Ba5Y3Br19
mp-776996,,,,,,,
mp-779074,2.8964,-2.5107741638397116,3.1181614931621335,0.0034756176786299164,-349.22193035,-7.2754568822916665,Li8Mn7Fe(BO3)8
mp-776658,2.2843,-2.8121507337499994,5.806978022253428,0.019127211875000327,-188.62300426,-5.894468883125,BaO
mp-556108,3.1654999999999998,-3.544610587001666,5.33062900675958,0.0,-95.52070117,-7.960058430833333,DyTiClO3
mp-780402,2.8329999999999997,-3.6806268380681826,4.1016841063140665,0.056765182727266605,-789.29277912,-8.969236126363636,Sc2Ti2O7
mp-763919,,,,,,,
mp-763575,,,,,,,
mp-777089,,,,,,,
mp-559210,1.6947999999999999,-2.526696534886365,4.546135533761951,0.0007409129545443705,-268.90771359,-6.111538945227273,Ca5Te3O14
mp-777210,,,,,,,
mp-556979,2.4631999999999996,-1.6563917666091956,3.932005306810992,0.0,-142.86919325,-5.1024711875,CsSmGeS4
mp-761464,,,,,,,
mp-699261,3.1973000000000003,-0.5820088768851422,1.7211751120760475,0.033453808157138276,-760.15527302,-5.429680521571428,CdH16C4S4(N4Cl)2
mp-8978,1.5265999999999997,-0.9265877081727592,4.6219782464144865,0.007796012187499812,-61.21600524,-7.652000655,CsNbN2
mp-565509,,,,,,,
mp-9360,0.25289999999999946,-3.242582704345238,5.065557781562395,0.0,-387.97504268,-8.082813389166667,CaU(PO4)2
mp-770038,,,,,,,
mp-3967,3.3853,-1.1054571903766661,2.3773765659531767,0.0023935538333308415,-134.61385786,-5.608910744166667,NaNO
mp-767044,,,,,,,
mp-850472,,,,,,,
mp-773501,0.3581000000000003,-2.3738406335929305,3.964162058939821,0.04317080479166702,-163.93683527,-6.830701469583333,Li3MnV2O6
mp-650715,3.2556999999999996,-3.260873680729168,6.243427269047467,0.0,-218.19744858,-9.0915603575,Gd2Be2GeO7
mp-766975,,,,,,,
mp-779798,,,,,,,
mp-850093,,,,,,,
mp-13042,3.8935,-3.1758111215909093,5.658437179912266,0.0,-157.29271839,-7.149669017727273,NaSr3TaO6
mp-769929,,,,,,,
mp-764496,1.3427,-1.3832630714499998,2.6973703778642237,0.000981602200000431,-196.79066335,-3.935813267,Na14Ni2O9
mp-566755,,,,,,,
mp-18168,3.7543000000000006,-2.235592550510204,5.448736683997935,0.0,-166.66483646,-5.952315587857143,TlZnPO4
mp-765730,,,,,,,
mp-1019892,4.386499999999999,-3.1150327436166663,4.51355868226067,0.022939358799998644,-409.73587993,-8.1947175986,La2B8O15
mp-778072,6.1194,-4.313328589972179,2.759198482775865,0.09932421663462954,-350.61062165,-6.742511954807692,Ba2Y5F19
mp-569687,0.6307999999999998,-0.49268007452593743,6.298687049430877,0.0030040513750000386,-44.49327377,-2.780829610625,CuHgSeCl
mp-680247,3.5462,-0.8539722140153901,1.72105089774413,0.015216728409087388,-524.41418093,-5.959252056022728,K3P6S6N7
mp-3551,0.9263000000000003,-0.9206268245833336,7.162296278843882,0.0,-34.87200863,-4.35900107875,TbAgTe2
mp-777766,2.5571,-2.7488526084428577,3.0551722157780903,0.11470215937499795,-616.79638923,-5.507110618125,Li3NbHO2F7
mp-572598,2.4126,-1.16553458016523,3.098586629947381,0.0,-155.52235424,-4.320065395555556,Cs2Ge2S5
mp-694917,0.5366999999999997,-1.5790399983699626,2.6751942343981203,1.0085274975641045,-239.50322927,-6.141108442820513,Na4CaFe4(PO4)6
mp-560412,3.4638,-2.423787944597532,3.2336856896932997,0.004697506250033179,-643.6480197,-7.314182042045454,GdP4H4NO12
mp-758059,2.1217,-1.8970780495833341,7.596768291979742,0.00936817333333373,-269.50253579,-5.614636162291667,Ba7Pb17O24
mp-730972,0.37840000000000007,-1.594051515224969,2.8100903589855184,0.06808523961986879,-527.24397514,-5.73091277326087,UP3H10ClO8
mp-560345,1.3256000000000001,-0.9335862456727219,3.1939134243566003,0.0031930064285736748,-217.02332383,-3.8754164969642857,Cs3CuTeS9
mp-547168,,,,,,,
mp-766116,,,,,,,
mp-767094,,,,,,,
mp-565674,,,,,,,
mp-27478,4.2294,-3.6702953712100004,4.457459305450117,0.0,-68.8592792,-5.738273266666667,Na3PaF8
mp-778551,,,,,,,
mp-765713,,,,,,,
mp-32425,,,,,,,
mp-34656,5.9971000000000005,0.19509294604800118,2.02082126761561,0.27281217300000105,-68.57844413,-6.857844413,Cd(CN)2