id,band_gap,formation_energy_per_atom,density,e_above_hull,energy,energy_per_atom,pretty_formula
mp-680333,1.2221,-0.241956554,4.137943721,0.00589278,-212.1676589,-4.080147287,Ge4Se9
mp-568636,0,-0.108126263,6.234566059,0.006320401,-219.9593109,-9.164971288,TiCr2
mp-504876,0.9576,-0.317356359,6.917550479,0.010615978,-96.48655092,-2.052905339,Hg19(As5Br9)2
mp-30835,0,-0.462884963,13.64678666,0,-23.60039593,-7.866798643,TaPd2
mp-1992,0,0.050629305,15.23596036,0.050629305,-198.1037574,-12.38148484,Pu5Ru3
mp-21508,0,-0.834917352,8.625367185,0,-62.33422178,-6.233422178,Y2Pd2Pb
mp-773667,2.3693,-0.747696679,5.862960973,0.086445769,-264.922683,-6.623067075,Ge2N2O
mp-4978,0,-1.264723609,4.282156157,0,-65.10744902,-8.138431128,Ti2AlN
mp-997035,0.7902,-0.878231347,3.634816804,0.067069515,-37.19643635,-4.649554544,CuO2F
mp-721252,1.3659,-0.829604592,3.366661864,0,-193.0456407,-3.860912815,Li10Sn(PSe6)2
mp-6942,1.1167,-2.053561572,5.304092065,0,-76.60692615,-5.471923296,Ho2CdS4
mp-141,0,0.005413735,7.009806471,0.005413735,-3.04684825,-1.523424125,Yb
mp-555646,3.4075,-1.842135949,2.960264831,0.045847806,-330.5629838,-6.356980458,BaH4(CO3)2
mp-755615,0,-3.059724462,3.770844701,0.061458522,-117.0196158,-7.801307722,Li3Ti4O8
mp-568522,2.0166,-0.479043447,5.041193622,0,-96.68663872,-2.685739964,In3SnI5
mp-763784,0.954,-2.898007072,3.360526271,0.064567962,-51.47013532,-5.718903924,LiMn2F6
mp-27917,3.696,-3.396945621,3.037039841,0.061664251,-189.4103643,-7.015198677,Ca3SiO5
mp-675625,3.0468,-1.506013738,1.874894996,0.00806538,-58.54424155,-5.854424155,KNO3
mp-567280,0,-0.809225055,9.422125961,0,-103.2508982,-3.226590568,Yb5Bi3
mp-604153,0,-0.431921389,5.855572857,0.003021395,-46.8676355,-7.811272583,LaCr2Si2C
mp-531914,0,-3.299860628,3.610295191,0.022392965,-451.2396336,-8.356289511,Li3Ti8O16
mp-735586,2.2587,-1.545164722,3.729477905,0,-222.7640142,-5.569100356,KFe2H(SeO3)4
mp-35889,0,-0.962437054,2.024335857,0.46292383,-44.23346351,-4.914829279,K4C2O3
mp-556438,3.4945,-3.032420089,4.634017763,0,-131.4041618,-7.300231209,KNaSmNbO5
mp-542170,0,-0.872412649,9.652899714,0,-257.8273273,-6.784929665,Lu5(Si5Ir2)2
mp-560605,1.6581,-3.172854846,7.024109535,0,-103.1192498,-7.365660699,LiLa4AuO8
mp-1000,1.593,-1.7901682,4.937885525,0,-8.64734519,-4.323672595,BaTe
mp-769111,0,-2.302608957,6.857161165,0.239874784,-475.6961414,-6.995531491,Sc3Bi3O11
mp-694932,0,,10.20194857,,-16.11558964,-0.805779482,Na(CoO2)3
mp-562569,2.3503,-1.076837368,4.014615799,0,-125.6087682,-4.486027436,CsPPbS4
mp-1018685,0,-0.539303662,9.037932448,0.048148905,-28.58802379,-4.764670632,ErCuSn
mp-2723,0,-1.264534374,11.30227002,0,-42.22052079,-7.036753465,IrO2
mp-755933,0,-0.797382601,3.203557733,0.284147844,-100.4591109,-5.581061718,Li2Fe3S4
mp-11985,0,-0.378120424,7.017535708,0,-30.0967108,-3.344078978,LaMgTl
mp-620325,0.0898,-1.843255607,4.465834186,0.073813355,-289.7037396,-6.5841759,CoCu2(BO3)2
mp-24456,2.2785,-1.542941137,2.531668849,0.049669736,-242.5198335,-6.062995839,SrH2N2O5
mp-698623,0,-1.428353567,5.452878258,0.81368394,-337.9492847,-6.758985693,K4W11O35
mp-850225,2.0733,-2.510988323,3.999838094,0,-250.8190429,-7.377030673,FeP6(WO8)3
mp-28701,1.7828,-0.869338987,2.827145392,0,-131.0558375,-4.095494923,CsSbS6
mp-4877,0,-0.039596892,2.668457358,0,-193.1890455,-4.829726137,CsNa2Si17
mp-542298,0,-1.408605057,4.788209672,0,-90.48133285,-3.231476173,Ag2F5
mp-2371,1.0068,-0.237695036,5.500923887,0,-23.4372782,-3.3481826,Ga2Te5
mp-1009831,0,-0.548761221,15.49437785,0.815945603,-20.90545177,-10.45272589,TaN
mp-19259,3.5419,-3.313854833,3.532449714,0.012387062,-194.9301822,-7.219636378,Sr4Al6WO16
mp-778680,0.5772,-2.463361218,3.131137538,0.056472134,-335.0804883,-7.446233073,Li5Mn8(BO3)8
mp-971928,0,0.137510192,6.866708503,0.137510192,-7.89118591,-1.972796478,Zn3Ge
mp-975769,0,-0.321470819,6.146006911,0.01208727,-15.08260253,-3.770650633,PrYZn2
mp-23245,0,-0.802005465,10.03921264,0,-10.06966706,-5.03483353,ErBi
mp-29996,0,-1.500129913,5.554167775,0,-140.9906242,-5.035379437,La3PI3
mp-775134,0.4825,-2.628715629,3.31773063,0.03117652,-182.0210107,-7.584208778,MnV3(PO4)4
mp-758374,0,-2.810720491,3.788966773,0.049025194,-628.2710791,-7.952798469,Ta7(P2O7)8
mp-758899,2.1568,-2.447423178,3.519309155,0.043879448,-203.0686546,-4.615196696,Sb2OF8
mp-505537,0,-0.282074363,7.6792825,0.008126978,-201.6955124,-6.95501767,Al3(Co10B3)2
mp-752477,0.0132,-1.864566978,2.050191148,0.059552919,-41.16257798,-3.742052544,K3NaFeCl6
mp-867879,0,-0.382564393,12.45533035,0,-14.31535606,-1.789419508,SmHg3
mp-16516,0,-0.63492327,6.264765842,0,-40.88324122,-5.110405153,TbAl2Ni
mp-20027,0.4336,-0.535333993,5.13312189,0,-41.77084309,-6.961807182,FeP2
mp-569740,0,-0.412403731,8.661981742,0,-642.2430371,-6.175413818,Yb2(Ni5B3)3
mp-776205,1.2333,-2.456168834,10.61356453,0.095208566,-104.6413187,-10.46413187,Hf2N2O
mp-778102,6.6615,-4.330966045,4.474295497,0.032104884,-183.2459632,-6.544498685,BaYF5
mp-1008874,0,-0.084741817,7.970428057,0.020449034,-19.66588418,-6.555294727,MnCoTe
mp-756936,0,-3.158767195,5.72246486,0.035288483,-163.8444033,-6.826850138,Sr3Li4La5O12
mp-31362,5.1851,-2.346328148,2.350062678,0.002831353,-82.93795213,-4.146897607,Na3YCl6
mp-7786,1.6987,-0.764046066,3.866353877,0,-24.70638033,-4.117730055,CsCu3S2
mp-624,2.6454,-0.171707437,3.552485943,0,-91.84190673,-6.560136195,B6As
mp-555650,4.1926,-2.445776647,4.860898271,0,-294.8988113,-6.143725236,NdSeClO3
mp-2474,0,-0.336868063,6.700101656,0,-9.96979385,-4.984896925,YAg
mp-11987,0,-0.349979924,7.804094412,0,-29.21271903,-3.24585767,SmMgTl
mp-7939,0.5135,-0.998240717,5.440616577,0,-44.84700477,-5.605875596,NaNbSe2
mp-761573,4.1004,-2.651825177,2.854355959,0.063919192,-99.51857759,-6.634571839,Li4Mn(PO4)2
mp-504506,3.9721,-2.150600644,3.576767548,0,-78.04960618,-6.504133848,RbIn(MoO4)2
mp-2052,0,-1.378432485,4.813229523,0,-13.73724377,-6.868621885,ScAs
mp-629082,1.288,-1.021227315,5.297195633,0.008536713,-1019.084964,-7.076978914,Ba3MoN4
mp-752677,3.215,-2.017182993,4.548796781,0.087876192,-83.78300971,-4.189150486,Ba2YBr7
mp-6456,3.386,-2.634332266,4.08255878,0,-235.4023684,-7.356324014,LiNbGeO5
mp-676643,0.4067,-1.87486908,5.324914462,0.051172589,-41.44337192,-5.18042149,Ba2NF
mp-776213,2.0237,-2.546567685,10.38889723,0.004809714,-422.1812289,-10.55453072,Hf2N2O
mp-975383,0,0.230195991,1.72240458,0.230195991,-6.10263289,-1.525658223,RbCa3
mp-13381,0,-0.630798047,8.407349311,0.002965397,-57.11074458,-4.759228715,CeZnPd
mp-7692,0,-0.470299859,5.338729221,0,-38.73006338,-7.746012676,Al(CrB)2
mp-704210,1.7412,-2.372081254,2.968475307,0.010016498,-936.6617649,-7.095922461,Mo(PO4)2
mp-777453,3.1429,-2.929027414,2.765418573,0.060889733,-165.0427924,-5.157587263,LiVF6
mp-11170,0.0043,-1.768205626,3.034046745,0.001883188,-77.41017649,-5.529298321,KCeSiS4
mp-759766,1.8876,-1.610783071,8.125298539,0.098314482,-373.665742,-5.748703723,Bi25BO39
mp-555569,0,-1.062300702,3.947128746,0.03509935,-69.95633368,-6.995633368,Cr2S3
mp-758289,1.6211,-3.471871695,8.345046562,0.053743533,-727.4282263,-9.699043017,Th4Ta18O53
mp-142,0,0,5.690976552,0,-12.1226746,-3.03066865,Ga
mp-567722,1.9854,-1.359076931,3.385171583,0,-264.7490969,-6.967081497,Ca7NbSi2N9
mp-559062,5.2363,-2.897885489,2.334015109,0,-140.805489,-5.866895375,KP(OF)2
mp-556481,1.9684,-2.517324259,4.920173289,0,-167.9513221,-6.997971753,SrU(SeO4)2
mp-706608,6.622,-2.010804379,1.994339076,0.009292063,-193.7454951,-5.381819308,KPH3O3F
mp-11411,0,-0.60332318,4.705645796,0,-21.13970413,-5.284926033,ScGa
mp-18002,3.9144,-2.252017254,3.028474673,0,-194.5232581,-5.403423837,KLi3GeO4
mp-554724,1.7068,-0.401171676,2.762720216,0,-165.0453184,-4.584592177,CuP4S3I
mp-24818,4.8836,-0.31208202,0.719270195,0.003310655,-67.66837298,-3.383418649,LiBeH3
mp-557997,4.2341,-2.325093338,3.742464409,0,-119.1860259,-5.959301294,CaSeO3
mp-561179,2.2566,-2.176278235,4.667923341,0,-123.9121545,-5.163006437,Ba2CuIO2
mp-9983,0,-0.733782953,9.705605281,0.008451174,-75.69665456,-7.569665456,Ta2Se3
mp-756919,3.6575,-2.476307308,3.240941538,0,-160.2240098,-6.162461916,Mg3(AsO4)2
mp-29104,2.587,-2.997283163,4.379154112,0,-396.0521534,-7.616387566,Ti3Zn2O8
mp-30516,0,-0.517010947,9.318560896,0,-228.159698,-5.703992451,Th3Sn13Rh4
mp-559051,0,-2.251369359,7.582693764,0,-119.0357239,-5.951786193,BaBiO3
mp-9306,0.7361,-0.715243758,4.587365859,0,-24.12209671,-4.824419342,Sr2ZnN2
mp-13344,0,-0.504307187,8.758991925,0.045248031,-154.4629011,-6.435954212,YbB4Rh
mp-771298,0.5522,-2.547671213,3.188089292,0.077103935,-286.1064879,-7.152662197,Li4V3Cr2Co(PO4)6
mp-7088,0,-0.60037767,14.76866752,0,-34.73752087,-11.57917362,Ta2C
mp-778460,4.241,-2.566045691,4.350388039,0.059543901,-721.4217023,-6.441265199,Li3Bi(PO4)2
mp-1443,3.1504,-2.728174886,4.472517143,0,-106.8050343,-4.854774286,Sn3F8
mp-41283,0.9548,-3.210030862,7.184818472,0.116007699,-83.64384121,-8.364384121,BaLaTaMnO6
mp-30312,0,-0.728849992,7.929112191,0,-61.60362099,-6.160362099,Ca2SiIr2
mp-770327,0,-2.331121025,4.183000808,0.099869981,-191.8697857,-6.852492347,Li4Ti3Fe3(CoO8)2
mp-6721,0.399,-2.601459361,5.046032985,0,-140.4013919,-6.381881452,Sr3LiRuO6
mp-5986,1.7322,-3.508001519,5.735322135,0.002897176,-40.04097418,-8.008194836,BaTiO3
mp-18997,3.4115,-2.65316802,3.316033462,0,-201.096012,-7.18200043,LiMnPO4
mp-541318,0,-3.024983006,2.873332977,0,-570.961847,-7.715700636,CsTi3Si2P6O25
mp-622930,0.4417,-2.325419173,6.335366746,0.023579854,-265.2751262,-5.76685057,Ba4In6O13
mp-3196,3.4559,-3.074130742,7.259882174,0.033119451,-143.382654,-7.169132702,NdGaO3
mp-780049,3.2023,-3.435650969,8.556759881,0.015668972,-521.1570672,-9.6510568,LuTa7O19
mp-558934,1.1793,-0.601413505,8.720467772,0.004451285,-112.7808605,-1.879681009,Hg3ClO
mp-29204,3.2238,-1.219259927,1.786556448,0,-141.9106265,-5.458101018,P4(S2O)3
mp-561481,0,-2.460321275,5.879461252,0.032797346,-218.5441118,-6.427767995,Ba5Ru2ClO9
mp-19722,0,-0.739679548,4.336961131,0,-41.14234177,-5.142792721,MnCu2SnS4
mp-756374,0,-1.38520096,11.66365481,0,-95.68361701,-5.980226063,SrPt3O4
mp-867680,0.1816,-1.121431454,5.632576274,0.061847477,-45.184241,-3.765353417,NaTlO
mp-769550,0.4141,-2.01649378,4.217942487,0.027359908,-291.4499085,-6.939283536,Li2Mn5(FeO6)2
mp-9915,1.1647,-0.586337314,1.994732555,0,-25.6125589,-4.268759817,LiBeP
mp-755887,2.4295,-3.106958915,5.18325287,0.002898038,-146.1729196,-7.308645981,La2S2O
mp-2463,0,-0.175776882,10.43460264,0,-43.94572241,-7.324287068,LuFe2
mp-19398,2.0861,-1.781578804,3.87868051,0,-227.8188372,-6.328301034,FeAsO4
mp-554264,2.3737,-1.602537509,3.496628066,0,-528.6480883,-5.286480883,Ba3Tb2(PS4)4
mp-18532,2.1575,-1.46655086,3.89332282,0,-261.1586835,-5.440805906,HoPS4
mp-867739,0,-1.380437475,4.500602888,0,-139.1060994,-6.955304969,Nb3GeS6
mp-554826,5.1502,-3.599129531,5.193016635,0,-221.3093293,-7.903904617,Pr3Si2ClO8
mp-2104,0,-0.717248035,10.70891937,0,-17.37573404,-8.68786702,UAs
mp-568156,0,-0.327360308,5.920829538,0,-152.0578077,-6.335741988,Y4CdRu
mp-706579,4.4839,-1.456968966,2.916992961,0.003557908,-242.6026475,-5.054221823,KH3(SeO3)2
mp-557807,2.1812,-1.2724935,4.842595064,0,-89.90988684,-3.746245285,CsK2AuO2
mp-555620,0,-2.99400206,3.707049076,0.004735543,-770.7302641,-8.199258129,BaNb7(P2O11)3
mp-27608,1.2807,-2.59461388,4.084389288,0,-78.78069007,-6.565057506,Be4TeO7
mp-22449,0.3111,-0.196174932,4.705245623,0.01839349,-81.13897019,-4.05694851,InCu(PSe3)2
mp-287,0,-3.973671129,6.584055797,0,-221.0637144,-7.368790481,UF4
mp-865165,0,-0.397994334,9.108181991,0,-32.09873088,-8.02468272,HfScCo2
mp-556761,3.996,-2.758986805,4.786248338,0,-266.9520994,-6.356002367,Ba5As3ClO12
mp-40204,3.1569,-2.965211519,5.392387165,0.057776079,-55.37303567,-5.537303567,KZrTl2OF5
mp-7097,0,-1.055083488,8.712433274,0,-39.74167565,-6.623612608,ThAs2
mp-626506,2.7884,-1.534949056,1.968568556,0.072096387,-26.81880109,-4.469800182,NaHO
mp-752414,3.3006,-3.901117586,6.638408384,0,-277.9722935,-8.686634173,Tb2TiO5
mp-133,0,0.048152,6.769202947,0.048152,-4.07919422,-4.07919422,Sb
mp-998964,0,-0.471446824,7.852734223,0,-28.38340851,-7.095852128,TiGaFeCo
mp-999336,0,-0.816503789,8.416311917,0,-23.1524902,-5.78812255,NdPd
mp-973285,0,-0.881326929,13.47863964,0.014549236,-19.17648158,-4.794120395,HoLuAu2
mp-865191,0,-0.159591364,10.09676207,0,-32.25298077,-8.063245193,FeGeRu2
mp-760319,2.5488,-1.740637377,7.707384676,0.05247692,-292.4998682,-5.624997466,Bi5O7F
mp-997017,0.0361,-0.391241246,3.591681166,0.19017941,-30.42587983,-3.803234979,AgClO2
mp-27330,0,-2.806279315,7.868737095,0,-121.5714981,-8.104766539,La3(OsO5)2
mp-769542,0.2357,-1.991605632,2.881049911,0.069665077,-373.7535044,-6.674169721,Na5Cr2As(CO4)4
mp-867955,0,-2.667812854,5.102702576,0,-350.8826124,-7.974604827,Na2Nb3O6
mp-537,0,-0.238048842,10.47623387,0,-39.0030928,-6.500515467,ErCo2
mp-669375,2.8124,-3.746540591,6.447193929,0,-275.3579773,-9.834213476,Gd3B2(O2F)3
mp-3824,0,-0.981989274,10.51747474,0,-155.7359561,-9.160938594,Ta9(NiS3)2
mp-752983,2.2668,-3.803001168,5.995121437,0.048748829,-224.661648,-9.360902002,CeZr7O16
mp-753755,2.143,-1.838636235,8.037453216,0.039178003,-89.46007117,-5.591254448,Bi3O4F
mp-1019363,0,-1.172584342,8.674521017,0,-37.43582754,-6.23930459,ThTeAs
mp-769500,0.9376,-2.185735655,2.618987713,0.012352486,-308.3202684,-7.007278828,NaMnPCO7
mp-4618,3.6361,-1.808699473,3.656520192,0,-140.3564857,-5.012731632,Rb2SeO4
mp-972810,0,-0.267413624,11.8208535,0,-40.1715515,-10.04288788,SiTc2W
mp-28912,1.6256,-0.757376543,4.556818856,0.002726213,-82.3401386,-4.11700693,MnInBr3
mp-28075,3.227,-3.080338481,2.895466115,0,-66.87004564,-7.430005071,K2Ti2O5
mp-755776,2.531,-2.233890261,3.852050156,0.01262363,-93.00424031,-5.166902239,Rb4SiO4
mp-554164,4.2923,-2.633099438,2.793042131,0,-305.1712884,-6.357735174,KLiZnP2O7
mp-1006277,0,-0.225640042,8.533216866,0.013080875,-170.411815,-6.086136249,CeGa4Co9
mp-981933,0,-0.230740821,9.683089493,0.014886585,-16.31912064,-4.07978016,NaPd2Pb
mp-645962,4.1737,-3.179984343,4.08682153,0,-740.836488,-8.231516534,La4B14O27
mp-540635,2.7734,-2.372406398,4.623335762,0,-182.107312,-6.503832573,BaSn(GeO3)3
mp-768490,4.1958,-1.997705551,4.141287577,0.005179771,-411.4708886,-6.051042479,Bi2(SO4)3
mp-772051,0,-2.169943625,2.966260149,0.088178667,-164.5363489,-6.32832111,Li3CuSiCO7
mp-681992,0,-0.148720089,8.225897616,0,-110.0635726,-6.878973288,Zr5Pb3
mp-21885,0,-0.889247327,8.37258464,0,-46.63268472,-4.663268472,Ca2InPt2
mp-568495,0,0.010981575,8.842897983,0.023159602,-105.7567091,-4.067565735,Cu10Sn3
mp-673071,3.7115,-2.554916755,3.457928549,0.036521692,-157.7776777,-6.574069903,Li2SnP2O7
mp-558431,0.6765,-2.417507215,2.897101752,0.002507622,-376.4779428,-6.722820407,LiCu(PO3)3
mp-755137,0,-1.456883164,7.325607815,0.021234495,-33.44344962,-5.57390827,BiO2
mp-1007776,0,0.215712444,6.819963486,0.230604298,-7.34531863,-3.672659315,TlP
mp-629443,0.2261,-1.5571136,3.652476156,0,-45.04390571,-5.630488214,Li2EuGeS4
mp-23414,0,-2.315187487,2.72770305,0,-132.5455772,-6.024798965,Sc4NCl6
mp-999469,0,0.982260956,6.637193092,1.00916769,-7.2607771,-3.63038855,ZnN
mp-776201,0.9216,-2.26350688,5.154108036,0.091162786,-194.1757515,-9.708787577,Zr2N2O
mp-975638,0,0.211579216,7.84691328,0.211579216,-23.45895531,-5.864738828,Pr3Hf
mp-778517,0.0224,-2.261780159,3.156368375,0.063305917,-237.2378509,-6.977583849,Mn3Sn(PO4)6
mp-558229,0.7226,-2.363510892,4.842963644,0,-367.2633668,-6.332127013,La10S19
mp-998605,2.3804,-1.811230672,3.547784882,0.039067292,-17.53571069,-3.507142138,RbPbCl3
mp-974042,0,-0.743491493,7.759718405,0,-148.332005,-7.06342881,Nd2Co12P7
mp-774349,2.837,-2.429220019,3.273972917,0.004932486,-251.1589431,-6.976637307,Li6MnFe5(BO3)6
mp-1208,0,-0.50892324,6.140749198,0,-27.18077455,-4.530129092,ErAl2
mp-2892,3.0973,-3.533121708,6.612160806,0,-212.3691901,-7.584613933,BaNd2O4
mp-758844,0.853,-2.321636968,3.137578689,0.098826239,-424.3913669,-5.89432454,Li3CuSiO4
mp-510564,0,-0.450329582,7.914152679,0,-29.02363225,-4.146233179,NdIn5Rh
mp-755288,0,-0.801345068,4.022617211,0.119772429,-25.4026582,-5.08053164,LiFeCuS2
mp-2738,0,-0.454470879,9.239549973,0,-45.17056855,-5.646321069,DyNi
mp-647096,1.0476,-2.317845918,6.404049219,0,-307.2834995,-10.9744107,Gd3S3N
mp-769877,0,-2.092770431,3.690782742,0.106796877,-176.9827946,-6.320814094,Li7Nb2Fe3O16
mp-721586,5.0579,-2.312621358,2.997434751,0.015921302,-421.3581303,-6.196443092,BaSi2(H3O4)2
mp-677103,6.6664,-2.529925904,3.156557768,0,-34.43414603,-4.304268254,RbHF2
mp-570985,1.9049,-0.204895565,3.171912981,8.01E-05,-406.6357107,-7.530290938,SiC
mp-996964,0,-0.892283149,7.701512057,0.030452076,-31.53074181,-3.941342726,CdAgO2
mp-27210,2.7665,-2.511769758,5.254012,0,-96.54520289,-4.022716787,RbTlF4
mp-982772,0,-0.927451726,11.75345722,0,-22.53318222,-5.633295555,Pm2PtAu
mp-759825,2.5742,-2.198084347,8.349340444,0.046762966,-64.55785321,-5.379821101,BiOF
mp-541756,0.0057,-1.148736349,2.700221154,0.002637142,-148.2732908,-3.294962018,Te2MoCl12
mp-530141,0,-3.283448109,3.632882069,0.009550811,-455.5447783,-8.282632333,Li7Ti16O32
mp-850511,1.8934,-2.001225693,3.293027669,0.079040955,-385.4805868,-6.023134168,LiFeO2
mp-540830,0,-2.066535233,5.092809458,0,-245.7492239,-5.119775498,OsF5
mp-772898,3.2132,-2.838887902,4.815930188,0.02800687,-269.2196553,-6.730491383,AlGaO3
mp-743579,0,-1.86994508,7.237463091,0.012644263,-128.2845074,-6.414225371,SrCoBiRuO6
mp-989404,0,-1.143407052,3.381173667,0,-38.32457828,-3.832457828,Ca6In2NF
mp-2818,0,-0.94932421,13.48269206,0.005923945,-6.70110791,-3.350553955,YbAu
mp-850229,0.8461,-2.429256961,2.976731211,0.055330675,-346.3502023,-6.927004045,LiV2P4(HO8)2
mp-557154,2.7914,-2.221534539,3.818106424,0.011374529,-347.3286194,-5.427009678,NaGaO2
mp-540996,3.9956,-2.994021791,5.238726586,0,-244.6024746,-7.643827332,NdGeBO5
mp-756086,1.5787,-1.267715332,2.953296882,0.096702599,-79.94587129,-3.997293565,Li5BiS4
mp-22303,2.261,-1.313743672,3.152005915,0,-50.78183411,-3.627273865,Rb3InS3
mp-569511,0,-0.255802022,9.532298983,0.009632168,-59.46487851,-4.955406543,NiTePd
mp-12386,0,-0.683579148,6.380681936,0,-60.07902982,-6.007902982,ErSi3Ni
mp-6122,3.73,-3.03146874,6.498373998,0,-68.41480766,-6.841480766,Ba2NdSbO6
mp-3782,3.1591,-2.626454521,5.910437242,0,-276.3561811,-6.908904527,Nd3Sb5O12
mp-680153,2.3594,-0.590665439,5.071448545,0.001471559,-120.2218322,-1.908283051,CdI2
mp-555112,1.5229,-2.958813611,3.02449452,0,-93.18454492,-5.176919162,Li2CrF6
mp-770729,2.5833,-2.495341274,2.937323418,0.094526989,-401.2741625,-6.269908788,Li2AlFeO4
mp-10973,1.0807,-0.808157063,4.169716259,0,-184.1873924,-3.837237341,K2Ga3CuSe6
mp-673700,0,0.018871405,8.382197873,0.300962275,-170.0790724,-8.099003449,Nb2Sb
mp-780237,0.7739,-2.086365766,3.87231092,0.084954945,-192.0691145,-6.002159827,Li3Cu3(PO4)2
mp-2352,1.8735,-1.439463086,2.350350052,0,-11.2216075,-3.740535833,Na2O
mp-758218,0.1709,-2.846775979,2.817215018,0.091263861,-326.0965232,-7.411284618,LiTiP2O7
mp-27293,1.8287,-0.764577827,6.557811994,0.009663724,-55.91186382,-2.541448355,Tl4HgBr6
mp-569048,0,-0.444448998,9.783577188,0,-110.8802126,-6.160011812,MgBIr
mp-774763,2.144,-2.730357524,3.341022829,0.093102508,-261.4013185,-7.4686091,Ti3Sb2(PO4)6
mp-559676,0.4176,-0.758703655,5.060458217,0.016875853,-17.98244658,-4.495611645,SnS
mp-15691,0,-1.330166698,9.401351717,0,-50.08723213,-8.347872022,NpAsS
mp-30585,0,-0.190333526,9.039158419,0.002850247,-26.21652429,-4.369420715,HoCu5
mp-8794,2.1728,-2.654142157,4.207670068,0,-126.8164621,-6.340823104,K4UO5
mp-603612,2.7679,-2.065794675,2.245899573,0.025916427,-368.2895816,-6.576599672,TiP4H8N2O13
mp-12056,0,-0.675473423,9.39506205,0,-38.55493132,-7.710986264,Ba(POs)2
mp-20112,0,-0.187243181,9.471030678,0,-44.18627922,-5.523284903,Ni3Sn
mp-1018017,0,-0.174645431,5.801413666,0.316473984,-26.53230254,-6.633075635,Sc2MnSn
mp-1018672,0,-0.306928988,7.346450599,0.020026613,-34.65292959,-5.775488265,CoAs2
mp-28868,0,-1.2575167,5.794931001,0,-145.5102046,-6.614100209,Nb3(BiS3)2
mp-759028,3.2481,-2.445234609,3.760753925,0.052862285,-341.8877538,-6.574764496,Li3Sb3(PO4)4
mp-772779,2.9136,-1.768886334,3.261108186,0.033673529,-201.0390471,-5.584417975,Ca(SeO3)2