id,band_gap,formation_energy_per_atom,density,e_above_hull,energy,energy_per_atom,pretty_formula
mp-11265,0.24659999999999996,-0.6838991950000004,4.2402562767759235,0.0,-39.84970452,-3.32080871,BaCaSn
mp-696762,5.1055,-1.9659770237651784,3.3869751062718843,0.0,-189.61572816,-5.925491505,TlP2H5O8
mp-565979,,,,,,,
mp-849511,0.5430000000000001,-2.433341476833334,3.9078975065793817,0.051621655666666655,-115.95855769,-7.7305705126666675,VO2
mp-28360,1.7082000000000002,-1.897692505456,2.208796206021308,0.0,-80.1794948,-4.00897474,Na3CrCl6
mp-763841,,,,,,,
mp-722941,3.5917,-1.3478243681829627,2.609576983735696,0.008200787453703562,-230.16406775,-4.2622975509259255,CaZn2H12(BrO)6
mp-775372,1.574,-0.9344129452083336,2.231717109396289,0.09706397357142826,-189.49995468,-3.3839277621428567,Li5SbS
mp-558568,2.4876,-2.3270024846874997,4.527177681857403,0.0,-351.11474666,-5.4861679165625,Rb2CdSiO4
mp-555273,4.1976,-2.925879784902,3.0665142491666906,0.012970902999995816,-237.46024605,-5.93650615125,Ca3Ge(ClO2)2
mp-607464,0.6253,-1.5795526173909096,3.8009901024547528,0.004189623636360551,-131.03209984,-5.956004538181817,Re2Cl5O4
mp-30295,1.1547,-1.2405883015472,4.142163769724466,0.0,-281.11910752,-5.6223821504,W6CCl18
mp-23101,1.2102000000000004,-2.342024432232143,8.031598892001094,0.040495263316320695,-102.68736366,-7.33481169,Nb2Bi2PbO9
mp-763883,,,,,,,
mp-22936,2.3835,-1.80974270391,2.7795815408141324,0.0,-20.44421945,-5.1110548625,Ca2NCl
mp-761780,2.6149,-2.376347749319728,3.2863982310014275,0.0750666385714327,-184.69449052,-6.596231804285713,LiCoPO4
mp-844,1.1111,-0.946281690952,2.6063864477465724,0.0,-213.07792828,-5.326948207,Ca3N2
mp-677080,2.7982,-3.2995251991728387,5.609046936061495,0.0014185697530937347,-686.13590428,-8.47081363308642,K6Ba3Ta12(Si2O13)4
mp-622295,2.4968,-2.511216768928572,3.0274157692286656,0.007494051597164208,-334.21341938,-6.962779570416667,NaMo(PO4)2
mp-559154,2.1037,-2.9748799078676464,6.054794526793827,0.005417277794123265,-273.25664542,-8.036960159411764,Ti4Bi2O11
mp-6825,3.2076,-1.3917239072523075,5.822460048197472,0.0,-423.56957639999996,-8.145568776923078,Ho2Si4CN6
mp-23263,2.9251000000000005,-2.02255688,4.871831059662563,0.0,-35.87402849,-4.48425356125,LaBr3
mp-556516,0.7668000000000004,-0.5654619210416667,7.504253846235953,0.0,-89.03413323,-3.29756049,Tl2S
mp-554947,5.4139,-2.9172611614285717,2.810687239548205,0.008234326666666902,-304.91096584,-7.259784900952381,NaSiBO4
mp-776884,,,,,,,
mp-27181,1.4392,-1.3090910635066668,3.3682413000347418,0.0,-69.01692309999999,-2.8757051291666667,KAuCl4
mp-685120,1.1228000000000002,-0.8121559676562498,4.2808445861641005,0.02788244574999954,-176.31732745,-4.40793318625,Al2Se3
mp-601210,3.0861,-1.167600866498334,1.5423635896232868,0.08934381916666645,-294.39426963,-6.133213950625,H5C2NO4
mp-770973,1.0015999999999998,-2.243521091744655,3.5729038487814013,0.02060273444444416,-451.71300245,-6.273791700694443,Li24MnCr11O36
mp-763013,1.3917,-1.7214039924700006,4.209965109396239,0.8090215200000008,-121.23333562,-5.051388984166667,Fe2OF3
mp-24181,4.6051,-2.5462121796728328,3.1985160942957744,8.033031249965461e-05,-106.59913610000001,-6.66244600625,CsGaP3HO10
mp-630511,1.0162,-2.411988006001428,3.5000617578681608,0.31420223422619475,-81.21997187,-5.801426562142857,Ca2FeClO3
mp-23513,1.8478,-1.5987309428399998,3.2365729826225733,0.0,-30.20338995,-3.3559322166666665,K2PtCl6
mp-6844,4.4357000000000015,-3.051611922614583,2.854099733850518,0.0,-707.49956335,-7.3697871182291665,KLi3Si12(SnO15)2
mp-779332,2.5867,-2.0717360610185174,3.2797782732171554,0.08923759074073878,-242.4867983,-6.735744397222222,B2TeO6
mp-766349,3.3672,-1.6519783637499998,3.802144604419724,0.06892783583333363,-79.70536003,-3.3210566679166664,BaCaI4
mp-765939,,,,,,,
mp-762902,,,,,,,
mp-625370,,,,,,,
mp-28592,4.251,-1.7922547524305557,3.0832511459585867,0.025521740416667882,-48.27162756,-4.02263563,Li7Br3O2
mp-765446,,,,,,,
mp-766287,3.0889,-1.5953823769444446,4.139283580906781,0.09981931444444436,-117.68156833,-3.2689324536111117,BaCa2I6
mp-4718,4.0346,-3.68400971,7.928063759204103,0.00424446499999931,-111.42528125,-9.285440104166666,NdTaO4
mp-4974,3.741,-3.919065071250001,5.882585630211811,0.0,-199.59357907,-9.072435412272727,La2Zr2O7
mp-768054,,,,,,,
mp-31730,,,,,,,
mp-557679,4.2837,-2.9217993263981468,2.399428311456432,0.0004937594907454823,-729.52709452,-6.754880504814816,KNaSi2O5
mp-2136,2.2239000000000004,-1.7609088507500004,5.3558500355165455,0.0,-119.19815932,-5.959907966,Sb2O3
mp-571306,0.2884000000000002,-0.7651729944642858,4.000448454307422,0.0,-65.95658978,-4.12228686125,Ca2Zn2CuP3
mp-540461,,,,,,,
mp-605912,1.1353,-1.6534790610072727,2.177013565076128,0.0,-82.98010189,-3.771822813181818,Al2NiCl8
mp-771890,1.9869,-1.9093331000378797,3.309588832594092,0.06264441045454205,-141.01763619,-6.4098925540909075,LiSnAsCO7
mp-850292,5.1993,-1.9467522483486583,3.0430066665083833,0.023193778170728763,-472.39696284,-5.760938571219512,Dy2H16S3O20
mp-768963,3.3492,-2.7906078175666673,3.2143694826638685,0.07456054285714497,-64.85799593,-4.6327139950000005,SrLaCl5
mp-774609,3.1152999999999995,-2.9229298426851864,3.3603135153155144,0.0198330643148088,-190.12157009999999,-7.0415396333333335,Na5Li3Ti5O14
mp-720110,1.3025,-0.8119296526814281,5.7499433906173465,0.0,-498.66761696,-5.936519249523809,KRe3Os3(Se4Cl3)2
mp-680095,2.3417,-0.5902111818333337,5.074502220156163,0.001795156499999839,-114.49708911,-1.9082848184999999,CdI2
mp-763574,,,,,,,
mp-770187,0.4236,-1.791361435,4.807670754655641,0.2510188216666682,-163.05020862,-6.7937586925,Cr3TeO8
mp-29274,1.6915999999999998,-2.178579977738094,3.3761115275404268,0.0,-122.16854255,-6.7871412527777775,P2PdO6
mp-622497,0.9518999999999996,-2.5217031414062507,4.444063966955072,0.004033506875009253,-254.41208394,-7.950377623125,V3O5
mp-776787,,,,,,,
mp-770198,,,,,,,
mp-14921,1.8609,-2.4266320481453807,4.2524856283632815,0.0,-155.37062048,-6.755244368695653,Zn4B6SeO12
mp-753800,3.6661,-3.3032921614640003,2.8545156274817587,0.01137069750000208,-140.50032687,-7.025016343500002,NbOF3
mp-18786,3.0599,-3.0989016655208337,3.2213902277557787,0.01845018763889339,-347.94601137,-7.248875236875,Ca2CoSi2O7
mp-773750,,,,,,,
mp-3582,1.0453000000000001,-0.14780555625000033,2.407814424423794,0.0,-273.18595697,-6.82964892425,Mg(BC)2
mp-6730,2.5636,-2.3962195284090906,6.630266517813914,0.0,-128.4624394,-5.83920179090909,Sr3ZnPtO6
mp-771643,3.0769999999999995,-1.5942992581481479,4.411861294502266,0.09439181916666772,-115.48469182,-3.2079081061111108,Sr2CaI6
mp-553993,5.6413,-3.2385739245833327,1.4927332127310295,0.039423744583332976,-378.08709386,-7.876814455416667,SiO2
mp-1888,1.0150000000000001,-0.14236926093750002,3.5253471038657307,0.03813110218749971,-188.24909518,-2.9413921121875,RbGe
mp-3466,4.1342,-3.6679335127499995,6.521624582573821,0.0,-79.20627789,-7.920627788999999,PrAlO3
mp-567320,1.4397000000000002,-1.3263016090625,5.202882197362358,0.011980274687497072,-156.14096499,-4.8794051559375,La5C2I9
mp-570213,0.3618999999999999,-0.37655783666666637,4.965553453307393,0.0,-8.52190866,-2.84063622,LiMgBi
mp-13772,4.7083,-3.09676803742647,4.350985194556582,0.0,-504.73113852,-7.422516742941177,Li3Pr2(BO3)3
mp-567452,,,,,,,
mp-27265,0.9757,-0.5973030203922218,6.689234703174346,0.0,-63.39184228,-3.5217690155555554,AuClO
mp-768995,4.269299999999999,-2.683334033984872,2.1787943758825157,0.09840426211538489,-259.51633677,-4.990698784038462,Ba2Y5Cl19
mp-642735,3.3024,-0.474881937782857,4.106434268410675,0.0,-48.63019213,-3.473585152142857,Rb2H4Pt
mp-24854,,,,,,,
mp-542514,3.2380999999999998,-2.3178054113970585,6.682861250479176,0.0,-215.68606722,-6.343707859411765,Ho2Te4O11
mp-975031,3.3379,-0.17746150867200008,1.6549314212470718,0.0015027036666652727,-61.30585786,-3.065292893,RbBeH3
mp-764710,,,,,,,
mp-771201,,,,,,,
mp-23276,2.1876999999999995,-1.1109699581925003,4.038728458072339,0.0,-199.27918794,-3.1137373115625,InCl
mp-556216,3.0606,-0.9356512642239998,4.283620363833044,0.01813224499999766,-177.43198763,-4.435799690750001,HIO3
mp-765612,1.0385999999999997,-2.360729822456897,6.634483768106421,0.008797518045978947,-171.53490998,-5.914996895862069,Ba8Bi4O17
mp-556989,2.0305,-1.1421990351736113,3.995306757383996,0.0013038817460317986,-126.30327376,-3.508424271111111,ZnS
mp-555865,6.9475999999999996,-3.9970531509617686,3.767636272898344,0.0012849718367426988,-281.07857871,-5.736297524693877,Na2Sr7Al6F34
mp-562609,,,,,,,
mp-763759,,,,,,,
mp-16452,1.4558999999999997,-2.239964259513889,4.812688485885178,0.0,-101.15014663,-5.6194525905555555,BaLa2ZnS5
mp-767005,,,,,,,
mp-764617,,,,,,,
mp-754138,2.8476999999999997,-2.974524796357759,7.198142110385298,0.0,-51.78323867,-6.47290483375,CsDyO2
mp-562480,0.7322999999999995,-0.8835377039903847,5.275099512728477,0.0,-103.83398158,-3.9936146761538462,TlIn5S7
mp-776687,3.8560999999999996,-3.0447024887752385,2.7197880986007794,0.02435498303571393,-69.27114722,-4.947939087142857,Li5FeF8
mp-771899,3.2207000000000003,-1.8643764788928574,4.5704629929986895,0.036742424000001606,-365.8659813,-6.097766355,Ni4P2O9
mp-770653,2.6749,-2.7303196854464287,4.155261091060929,0.10629134297619025,-394.87264606,-7.051297251071429,Sr3W2O9
mp-769888,,,,,,,
mp-673798,1.0264,-1.6437281067020002,1.9535231550818832,0.007473619999998959,-34.09870764,-3.409870764,K3ClO
mp-561392,2.7184,-1.8910098246461102,2.901912364049172,0.0,-230.98896458,-6.416360127222222,TcSO6F
mp-767683,,,,,,,
mp-556666,2.2217,-2.5318620623362493,5.63736372890619,0.005167818671876212,-215.08302977,-6.7213446803125,CaBiCO4F
mp-777294,3.7211,-1.959939744742647,4.231088807196524,0.03233088551470509,-819.67010917,-6.026986096838236,Bi2(SO4)3
mp-541361,1.7946000000000002,-1.5332503823429995,2.5201175025093767,0.00011028574999283336,-181.18033347,-4.52950833675,K2RuNCl5O
mp-752573,1.0116999999999998,-0.17023328535714302,2.6425820684503383,0.0,-109.71444983,-3.918373208214286,Ba(NaSi2)2
mp-573721,1.0421,-0.45388913717241336,3.9717553187357515,0.0,-37.60131441,-3.760131441,Cs2SiAs2
mp-868171,,,,,,,
mp-867695,1.931,-1.2273918508333332,2.695804621545623,0.03946137755102175,-39.2596746,-5.608524942857143,Li2WS4
mp-33335,4.2517,-3.3423067407142857,3.473715887957157,0.04122717261904718,-296.80113982,-7.066693805238096,MgAl2O4
mp-770840,1.3477000000000001,-2.3865196213095246,4.267784954878005,0.04656238340475394,-184.10267267,-6.5750954525,LiVGaO4
mp-17926,0.4413999999999989,-0.6506057855000009,8.154668308827391,0.0,-132.00924697,-6.6004623485,Zr3Ni3Sb4
mp-770167,,,,,,,
mp-761711,1.4542000000000002,-2.569804889120369,2.496856376485125,0.07266499055554831,-123.97329327,-6.887405181666667,Li4V3SiO10
mp-31114,3.5595999999999997,-3.6171584172500006,8.216879283869611,0.003977076749999142,-156.84178703,-7.8420893515,Ho3GaO6
mp-774354,3.1486,-3.006946678605877,2.7996966168697712,0.03215319625000124,-192.11583836,-6.00361994875,LiMn2F5
mp-12453,1.6113,-1.7043504071875013,5.8936406049881445,0.0,-89.77998761,-5.611249225625,HoCuS2
mp-696136,3.3956,-2.429773888952381,2.65518684038606,0.12503573579999916,-291.20085617,-5.8240171234,Li10Sn(PO6)2
mp-10930,1.2587000000000002,-3.385050241438334,6.997341432419844,0.0,-39.36611365,-6.561018941666667,TbSF
mp-28597,1.216,-0.8101236803750002,3.607745152664282,0.0,-239.89791423,-2.998723927875,Na5InTe4
mp-679991,2.1983,-0.45526289079545407,6.125428954029568,0.004422492045454085,-475.51970927,-5.4036330598863636,CuW3Br7
mp-763923,0.37770000000000004,-1.9340595863622225,4.6579515626945565,0.08883582249999566,-94.56604227,-5.253669015,Co3(OF2)2
mp-753775,2.7561,-1.6237383725,4.262271637178502,0.0971678270833336,-19.75690006,-3.2928166766666664,BaCaI4
mp-759838,3.2885999999999997,-2.513222020873015,3.6430891911658265,0.030076134999999837,-243.4453051,-6.762369586111111,NaSn2(PO4)3
mp-10779,1.8951999999999998,-1.7243833280468746,4.818375111507573,0.0,-19.63803355,-4.9095083875,RbNdSe2
mp-2245,4.654700000000001,-1.313397095645714,3.117167815701982,0.00017758285714997157,-229.09536154,-8.181977197857142,Si3N4
mp-561511,0.7066999999999997,-0.6715765343750005,6.221555948909835,0.0,-74.46209828,-6.205174856666667,FeAsS
mp-770551,1.1130999999999998,-2.408957787056064,3.243633039844105,0.22171132874998634,-205.19440811,-6.4123252534375,Li2MnAlO4
mp-15750,2.0967000000000002,-2.603046527572055,3.766398417207418,0.0,-563.9799396,-7.420788678947368,TaAgP4O13
mp-755089,3.9644999999999997,-3.8013959583333325,5.504001469338571,0.022415083333335417,-113.77287777,-9.4810731475,ZrO2
mp-705896,2.3731,-2.0893700390416656,3.4465064472823816,0.12340196434374384,-275.80834378,-6.8952085945,MgVFeMo3O14
mp-4016,1.7941000000000003,-0.967868605,5.385392502505997,0.0,-129.65757595,-4.0517992484375,TlGaS2
mp-555155,4.8159,-3.202299383603332,2.7482294510138674,0.0,-372.96746033,-7.4593492066,KNa2Y(Si2O5)3
mp-771367,,,,,,,
mp-764747,0.7544999999999997,-2.226184798035555,4.3527452024706035,0.06398199777778935,-216.97280444,-6.027022345555555,FeOF
mp-762690,,,,,,,
mp-18911,2.1170999999999998,-2.6944495279599567,2.823206571260044,0.02544598659090891,-158.98890767,-7.226768530454546,LiVP2O7
mp-3527,1.1437,-1.2799918868055553,3.7934951748189665,0.0,-45.88096066,-3.8234133883333334,Na3AgO2
mp-770256,1.6145,-2.7590981153174603,2.9060254313531955,0.08591501500000653,-295.19124353,-7.028362941190476,Li4V2(SiO4)3
mp-695890,4.950699999999999,-2.8218876552946663,3.1921485083002037,0.06069839399999655,-440.7722483,-6.296746404285714,Mg10Si3(H2O9)2
mp-868611,,,,,,,
mp-773864,2.2592,-2.751454379166667,4.879470792420201,0.06622302124999457,-45.37873597,-7.563122661666667,TiSnO4
mp-774951,0.6859999999999999,-2.2618519459963218,3.9933691518030754,0.005196523293646393,-399.40038172,-7.132149673571428,Li2MnCr3O8
mp-555391,,,,,,,
mp-763508,1.1284999999999998,-1.9533806272222227,2.3463433423181392,0.0618228552777591,-275.63325707,-7.656479363055556,V(CO3)2
mp-767621,,,,,,,
mp-570232,4.5211,-2.7092197611950004,3.520047870182976,0.0,-76.9311923,-4.80819951875,TbCl3
mp-850240,,,,,,,
mp-770861,0.6679999999999999,-2.0792124818201754,2.9730719681486,0.09094600157894117,-433.07001656,-5.698289691578947,Li8Cr2O9
mp-4710,2.6125,-1.6738332649242422,7.015138397308966,0.0,-116.31165414,-5.2868933700000005,Hg3(BO3)2
mp-772480,,,,,,,
mp-695119,4.4926,-3.156135979678571,3.1297095506123127,0.0032061083750010155,-302.72568533,-7.568142133249999,Na3Zr2Si2PO12
mp-756473,1.9441,-1.3037276585275002,2.8294449441758807,0.0036479065624979157,-58.53777239,-4.878147699166667,WSCl4
mp-565425,,,,,,,
mp-770358,1.0750000000000002,-2.4030404271759256,3.457222576248803,0.2298463499999963,-253.99600146,-7.055444485,Li3V3(BO5)2
mp-543100,,,,,,,
mp-743890,2.7422,-2.632478909318301,3.589750929520657,0.0,-233.47636211,-7.531495551935484,Mn4Si4SnB2(HO9)2
mp-567743,0.7508999999999997,-1.1277074142266668,3.6193565644292622,0.0,-267.63957996,-3.717216388333333,AlSb2(TeCl2)2
mp-560394,3.3366,-1.6398734419019996,5.514563342103398,0.0,-210.52517387,-5.26312934675,AsPbClO2
mp-4123,1.4473000000000003,-1.8177716040625,6.935829831549389,0.0,-21.14614387,-5.2865359675,ErTlS2
mp-29078,0.7238,-0.2779891549999998,7.15914540759743,0.005405218333333295,-143.55371372,-1.9938015794444444,Hg4As2Br3
mp-28922,3.349,-1.4212640902693332,3.001470032452989,0.0,-232.1092352,-7.736974506666667,Ca2Si5N8
mp-547017,3.042,-2.226034476856061,3.9524910342028794,0.020409854090906343,-69.17755233,-6.288868393636363,LiAlAs2O7
mp-3653,1.0374999999999996,-2.237864706759259,5.757006494122382,0.0,-110.93934052,-6.163296695555555,Mg(SbO3)2
mp-567386,1.5523,-0.7241304273180076,5.062407347813207,0.0,-47.1995813,-2.622198961111111,Cs2Cd3Te4
mp-17297,5.7857,-3.012656139311852,3.024418673803897,0.0,-128.63749109,-4.764351521851852,Na2GeF6
mp-781013,0.8002,-2.466586558575026,2.9091533435623607,0.15089579370369322,-366.3771645,-6.784762305555556,Li3V2P4(HO8)2
mp-8756,2.5253,-1.2133067523368055,2.7659622739190044,0.0,-20.31030707,-3.3850511783333332,KLiSe
mp-558456,1.8293,-0.83069615046875,6.318511954909394,0.0,-92.18242824,-3.84093451,Hg3Se4O5
mp-744123,,,,,,,
mp-770163,,,,,,,
mp-761334,,,,,,,
mp-625528,,,,,,,
mp-1018030,2.1896000000000004,-2.556567746927083,3.9668321306145153,0.22345313499999975,-21.32388883,-5.3309722075,Sr2SO
mp-30980,4.133100000000001,-3.1423115614583326,4.251370450185075,0.0,-115.35549938,-7.20971871125,NaYO2
mp-569435,1.6133,-0.3989801301705356,4.457485814080079,0.0,-163.15462887,-4.078865721750001,KBi(PSe3)2
mp-850760,,,,,,,
mp-697734,1.1881,-2.325818717807539,2.581691867464383,0.1071282497309003,-252.0523332,-7.0014537,MoP4O13
mp-989523,4.5539000000000005,-2.8211643677139997,3.714409068616583,0.0,-44.66674369,-4.466674369,Rb2NaAsF6
mp-12862,4.0562000000000005,-3.756187550833333,9.67992382294154,0.009077842499999988,-111.79702996,-9.316419163333334,LuTaO4
mp-763513,,,,,,,
mp-566480,,,,,,,
mp-642350,4.3496999999999995,-2.8812582856825393,2.5232110391719718,0.060929966666688706,-261.02036853,-7.2505657925,KLa(PO3)4
mp-19504,1.8963999999999999,-2.055509528461539,4.7230486758351615,0.2560961702884681,-351.50106552,-6.759635875384616,BaV2(CoO4)2
mp-764685,2.222,-2.8142608931644446,2.693690318197834,0.18339278583332597,-138.80864101,-5.783693375416667,LiVOF3
mp-23784,5.829000000000001,-0.8875249933161117,1.1429210256226288,0.019098083749997663,-424.40910236,-4.420928149583333,NaB(H4O)2
mp-753202,0.6945999999999999,-2.7843790980609526,2.8571166758021675,0.002055302499989864,-63.98952938,-4.57068067,Li5CuF8
mp-780156,0.7241,-2.4981129859864106,3.1375229869789303,0.020898522657109453,-258.36202898,-7.381772256571428,Li5Mn6(BO3)6
mp-680676,0.8910999999999998,-1.73619761969079,5.1750467962618565,0.0,-101.28943551,-5.331022921578947,K2Dy4Cu4S9
mp-769280,2.9774,-3.4160365284895824,6.116767755963454,0.08028175622033729,-203.09828151,-8.462428396249999,Ca5Ta4O15
mp-17836,3.8754,-3.4452235068055552,6.868729597846372,0.0,-269.72003608,-7.492223224444444,BaNd2BeO5
mp-505701,5.6395,-2.084536767046428,2.0273118476807306,0.0,-382.62156023,-5.97846187859375,NaP2H5O8
mp-755260,2.4334,-2.369378335054348,4.882165544681772,0.02667444499999405,-153.39050777,-6.669152511739131,Cd4B6O13
mp-22009,1.3133000000000001,-0.48711234617187493,4.062929338787156,0.07354773999999953,-16.36545144,-4.09136286,PbSe
mp-763615,,,,,,,
mp-699575,2.6041,-2.5122973460000004,4.080334704001499,0.02008727349999706,-575.29906538,-7.19123831725,CoSiO3
mp-23870,3.7667,-0.2667172818100001,1.4171811922359727,0.0,-5.08539423,-2.542697115,NaH
mp-754853,4.4855,-3.83133831375,6.860693207352261,0.0,-175.40134192,-8.770067096,CaHfO3
mp-560750,,,,,,,
mp-770756,3.5124999999999993,-2.6105585336217954,3.355979708114599,0.058509995000000536,-170.95752811,-6.575289542692308,Li3SiSnBO7
mp-752514,3.6361999999999997,-1.7267443211111113,3.794136216028509,0.0270131233333335,-80.25981708,-3.344159045,BaSrI4
mp-540435,,,,,,,
mp-13546,3.7720000000000002,-3.053271740719698,4.856435023046424,0.0,-341.89128001,-7.770256363863637,Y2Ge2O7
mp-971,1.7109,-1.2529555390833333,2.2911758368945025,0.0,-10.22532998,-3.4084433266666667,K2O
mp-626483,5.295,-1.5925392226354993,1.725367925985292,0.02460013024999963,-214.34262433,-5.35856560825,H4SO5
mp-760468,3.3213000000000004,-2.724653737916667,4.6584048054249125,0.05804839874999512,-138.72530147,-6.9362650735,LiSi2BiO6
mp-14665,5.658499999999999,-2.6718039313958335,3.620807194195231,0.0,-315.40597127,-6.570957734791667,KNd(SO4)2
mp-642254,,,,,,,
mp-7798,2.6358,-0.7724701620233327,4.2909182536287345,0.0,-100.83693028,-6.3023081425,MgGeN2
mp-756850,3.7125000000000004,-3.7160310360833324,6.697750925061307,0.09828098811668262,-237.50206762,-7.916735587333333,LuAlO3
mp-19913,1.1076000000000001,-0.7884526471428575,4.561121659332528,0.0,-80.01899444,-4.445499691111111,Ba3(InP2)2
mp-555606,3.9497999999999998,-2.727898735178572,2.7194226464689337,0.002648149071432293,-217.42621283,-6.212177509428571,Na10Be4Si4O17
mp-27506,1.3426,-1.6857679448814287,3.422469125767836,0.0,-128.2657196,-4.580918557142858,K3W2Cl9
mp-763619,3.3924999999999996,-2.7543765246212115,2.8892233229965205,0.05298331113637378,-152.34611728,-6.924823512727272,Li2Fe(SiO3)2