id,band_gap,formation_energy_per_atom,density,e_above_hull,energy,energy_per_atom,pretty_formula
mp-774995,0.9347,-2.502240000801333,4.156885369457008,0.07623725500000322,-172.14163444,-5.738054481333332,Fe5(OF4)2
mp-779379,,,,,,,
mp-782065,3.5399,-2.230211302373512,3.7073928590881264,0.03969945937498842,-198.14210963,-6.1919409259375,LiTePO5
mp-31642,,,,,,,
mp-626716,3.6187,-1.6066594909566667,2.0747462166041983,0.0032411483333323328,-26.8315591,-4.471926516666667,KHO
mp-744811,4.9625,-1.173497329079795,1.7268836128583414,0.04542774205151279,-542.84907972,-5.539276323673469,NiH24C2S2(N3O7)2
mp-570971,1.3625000000000005,-0.7563563933545445,5.191033909669168,0.0,-124.46998957,-5.657726798636364,Sr3Ga3N5
mp-32884,1.3054,-0.26924557826388923,6.375055319636918,0.0069375666666666716,-19.89156943,-3.315261571666667,Ag2S
mp-775056,,,,,,,
mp-676400,1.6998,-0.8643544637199998,5.514924097347857,0.06642559737444564,-22.2628739,-5.565718475,TlNO2
mp-687204,3.3317,-2.6172372975,4.74388633664431,0.0,-349.12895823,-7.934749050681819,NdReMoO8
mp-561551,5.176,-3.6659599659469695,3.9354114816135413,0.022968261893939967,-187.64829706,-8.529468048181819,Y2Si2O7
mp-763499,,,,,,,
mp-767065,0.5045000000000002,-2.4919351896722994,2.8529024855399547,0.3668230803571424,-146.88817161,-5.246006128928571,LiMn3F10
mp-770140,,,,,,,
mp-777626,,,,,,,
mp-510127,,,,,,,
mp-762918,,,,,,,
mp-22583,2.0423,-0.9253652456379872,2.507045757353355,0.0,-49.17860117,-4.470781924545455,KInP2S7
mp-28072,3.9214999999999987,-3.5003651445833324,5.9707010005458505,0.039470081250000184,-140.16490717,-7.786939287222222,La2Be2O5
mp-759280,4.4162,-3.1747142067989422,3.0197478671357283,0.008812608750002227,-286.67404609,-7.963167946944443,LiZr2(PO4)3
mp-764343,,,,,,,
mp-557115,3.9319,-2.7026904822674718,3.655647022755741,0.005201081000005381,-140.19868981,-4.673289660333333,Cs2As2OF10
mp-765433,,,,,,,
mp-769762,,,,,,,
mp-31766,,,,,,,
mp-779243,,,,,,,
mp-18835,1.7786000000000004,-2.7085146272619056,3.575563662269201,0.0,-184.18956668,-7.674565278333334,VPO4
mp-559916,2.444,-2.2857040551315793,2.471783482468948,0.0017612114661700316,-195.82307183,-5.153238732368421,Na17Al5O16
mp-555559,1.6363000000000003,-2.798693072457388,6.896766191168157,0.023810712878797883,-330.0414903,-7.500942961363638,Sm3NbSe3O4
mp-25613,,,,,,,
mp-763768,,,,,,,
mp-779571,3.8196,-3.3000565097083343,4.49520744099781,0.06748853327498594,-660.61636137,-8.257704517125001,La3B5O12
mp-559516,2.9435,-2.347618171,2.548296180759729,0.0,-606.39177981,-6.3165810396875,K3Nb(SO4)4
mp-10251,3.9643,-3.2922139122916665,6.2886016678665175,0.007044816249995201,-112.70358512,-7.04397407,LiDyO2
mp-8301,0.7324000000000002,-2.546485768475999,7.6501740876724895,0.0,-52.95254341,-10.590508682000001,Gd2CF2
mp-765138,,,,,,,
mp-6507,3.3241,-2.5894279260576933,3.4201735328134117,0.0,-158.7447397,-6.105566911538461,Na2Zn2Si2O7
mp-530933,3.4494,-0.9275604846771822,2.3234581836640658,0.0050316966666672505,-570.11418195,-5.9386893953125,Li5P2N5
mp-771458,,,,,,,
mp-31232,2.1177,-2.2935687912276785,5.413396197113639,0.0,-100.98706199,-6.311691374375,In2PO5
mp-23559,3.059,-1.0453512174038455,5.032243826577599,0.005023313076923053,-118.24853194,-4.548020459230768,In(IO3)3
mp-777211,,,,,,,
mp-9047,2.2989999999999995,-1.114283642541667,2.558098748374705,0.0,-94.60125011,-4.7300625054999985,RbBS3
mp-504748,3.3932,-2.305333803046396,6.749839403158684,0.0,-270.8333036,-6.448411990476191,P3Pb5ClO12
mp-764345,2.1429000000000005,-2.5867669293452398,3.6730263866645987,0.022286779027782092,-182.22638713,-7.592766130416668,CrPO4
mp-25094,,,,,,,
mp-771360,2.5692,-2.528274708801093,3.409861081229967,0.06451242399999835,-266.41795315,-6.660448828750001,Li6MnSn3(PO4)6
mp-768369,6.2374,-4.256764209416334,3.9712488562433856,0.055827299250002405,-251.26203739,-6.281550934749999,Ba2YF7
mp-779358,4.0157,-2.2573487837500004,2.5324931446176704,0.046899282500000083,-371.02781864,-5.79730966625,Na3VO4
mp-25533,,,,,,,
mp-744929,2.6466,-1.6588894378860777,1.8650759144846376,0.06532190605391898,-196.93799391,-5.792293938529411,Li2Cr2H4O9
mp-767547,,,,,,,
mp-568436,1.1269999999999998,-0.7433545470319041,4.74189639937559,0.0014711798214301908,-298.26270875,-5.326119799107143,Sr7GeN6
mp-541462,3.5305,-3.4442421812760404,7.611015419582274,0.0,-301.86157086,-9.433174089375,SrTa4O11
mp-542081,2.2563000000000004,-1.4526846885431557,2.574087923180319,0.0,-238.90608821,-4.9772101710416665,K2LaP2S7
mp-764557,2.2666,-2.7441488281286666,2.9105940502958085,0.03640597708333182,-174.94538175,-5.831512725,V6O5F19
mp-555393,2.3298,-1.667924227602941,7.510914034863615,0.0,-741.05219884,-5.448913226764707,KBi6BrO9
mp-570061,3.373,-2.5554524944440002,4.414200965789372,0.008747167249999244,-442.67626098,-5.53345326225,Nd3NCl6
mp-28293,2.4075,-1.257466371628312,2.315640423469565,0.0053525259090903,-69.04473944,-3.1383972472727275,SnPCl9
mp-8248,3.6011,-1.839943278125,3.857665199723686,0.0,-57.762050300000006,-4.8135041916666665,Rb2TeO3
mp-31116,3.8831000000000007,-3.9597406997499993,5.670435569070415,0.0,-175.21670446,-8.760835222999999,LaScO3
mp-773175,,,,,,,
mp-764786,2.7767,-2.455025223851316,2.577863080566362,0.09208339879629523,-194.17682381,-5.393800661388888,Li4Mn(OF)2
mp-556953,1.8334,-1.076704689089285,2.291127797100027,0.0,-44.39262596,-4.439262596,RbPS3
mp-706271,3.0416000000000003,-2.5761543148320003,3.185857252118644,0.021860599845238585,-107.21569199,-5.3607845995,K2NaMo(OF)3
mp-675420,1.4946999999999997,-1.3955046125440704,6.328821827254147,0.08775102768428766,-134.80319,-5.184738076923077,Pr4Ag2Se7
mp-770430,2.4874,-3.4974325177884604,8.85145180866702,0.021191256923078328,-533.30826412,-10.255928156153846,GdTa3O9
mp-778347,3.103,-2.5101455902377783,3.361891427207814,0.4104431554166688,-113.55317588,-4.731382328333333,LiFeF4
mp-558134,3.0045,-1.975698125595,7.921890893960253,0.006063342499999179,-15.46719861,-3.8667996525,TlF
mp-696490,5.082700000000001,-2.3720878755569244,2.4323801928833397,0.07155251980768984,-311.92471676,-5.998552245384616,Ca2H2S2O7
mp-18531,1.4380000000000002,-0.6830336115000001,4.608235915633912,0.0,-94.63964983,-2.6288791619444445,K2Cd3Te4
mp-773602,0.7133000000000002,-0.9693621788012632,4.474282907873658,0.3628869170833324,-68.7814796,-5.731789966666668,MnCo3O8
mp-565228,,,,,,,
mp-574529,1.3831,-1.310262498246786,2.37406929845757,0.0,-199.39712144,-3.560662882857143,Al(SeCl2)2
mp-626279,3.891,-1.4779392090896293,1.6899257323657182,0.015908793101853114,-272.3925253,-5.044306024074074,Ca(H8O5)2
mp-853141,,,,,,,
mp-722189,2.4169,-0.9215153701826659,3.314667037239452,0.06731305650800222,-145.43101764,-4.847700588,H8PtN2(ClO)2
mp-767838,,,,,,,
mp-762386,,,,,,,
mp-17288,3.7837,-2.649603160416666,3.2828754925841146,0.0,-194.7207365,-6.085023015625,Li2ZnSiO4
mp-765448,,,,,,,
mp-850450,,,,,,,
mp-31419,3.0573,-2.1929028175000003,5.908822697459778,0.0,-116.00124137,-6.444513409444443,LaSb5O12
mp-578800,,,,,,,
mp-16236,0.4838,-0.6650922245590278,4.626412379584574,0.0,-18.86823231,-3.144705385,KAgSe
mp-850468,,,,,,,
mp-467,1.4820000000000002,-1.8283054113599997,10.448199037697767,0.0,-66.84960138,-9.549943054285713,Th3N4
mp-13630,6.6192,-3.3194549355014287,3.3205684441140266,0.0,-69.56942112,-4.969244365714286,Rb3NaBe2F8
mp-2951,1.4855999999999998,-1.8780833852500003,5.65076774593253,0.00121472833333236,-110.60451097,-5.530225548500002,CdGeO3
mp-30321,5.6411,-3.1710717061685467,3.1192679175665368,0.003017182828942921,-300.05861254,-7.8962792773684205,Y2P4O13
mp-581864,1.5081000000000002,-0.6315019372171333,4.093830581761058,0.0,-120.57392909,-3.7679352840625,CsAsSe2
mp-641919,3.5221,-3.3713166688949205,2.8058245133602737,0.0,-939.56441495,-7.456860436111111,KLi3Ca7Ti2Si12(O18F)2
mp-761916,0.975,-1.0051214293316668,3.9470167992314464,0.005170904791665709,-178.58218176,-3.72046212,NaH4Au(Br2O)2
mp-561033,0.3253000000000004,-0.5953365069228924,5.356132470481226,0.032466370555555464,-74.33686777,-4.129825987222223,CsCu5S3
mp-777883,4.6931,-2.8195683569196968,2.6290585798168298,0.0947534718181835,-395.27267256,-4.491734915454545,Ba6YCl15
mp-769693,,,,,,,
mp-766766,,,,,,,
mp-774365,3.3283000000000005,-3.001207461105877,3.2157103039936548,0.037892413750000735,-191.9321834,-5.99788073125,LiMn2F5
mp-568203,1.7402000000000002,-0.7498097755205355,4.222039636090076,0.0,-274.33945464,-4.572324244,K2Th(PSe3)3
mp-753858,3.8984,-3.5833441652825,2.540912898011688,0.05321472718749831,-117.26078095,-7.328798809375,TiOF2
mp-567160,,,,,,,
mp-19128,0.7120000000000002,-1.4096157968750005,5.097638164816813,0.00041257999999988465,-49.19685943,-6.14960742875,CoO
mp-771040,3.5501,-1.3518785750925923,4.526600008621074,0.05911463777777825,-169.14325614,-4.6984237816666665,Mg(IO3)2
mp-554175,5.7620000000000005,-3.1797094827083328,1.6248571177085624,0.09828818645833336,-375.26160065,-7.817950013541666,SiO2
mp-777719,,,,,,,
mp-7800,3.7139,-3.1859771249999986,6.4851817505039016,0.008716070781250806,-111.44737907,-6.965461191875,LiSmO2
mp-19672,,,,,,,
mp-776627,3.9836,-2.862536802047333,2.87075400882021,0.16198005191666984,-291.67040654,-4.8611734423333335,Li3FeF6
mp-634660,,,,,,,
mp-849363,,,,,,,
mp-979340,2.9339999999999997,-1.8186923997912492,5.734593195881316,0.0,-455.78534828,-7.121646066875,Sr2LiTaN3F
mp-555983,4.754099999999998,-3.8465296976562486,6.8726200184840485,0.0,-266.23522072,-8.3198506475,Er2SiO5
mp-778795,2.9462,-2.4299379564166665,7.690484030961843,0.10053516899998273,-413.65382218,-6.894230369666668,Ta2Zn4O9
mp-705362,0.8796999999999999,-2.4771736621713263,2.612245320744411,0.039254761565207914,-313.55713814,-6.8164595247826085,Li2Co(PO3)5
mp-23218,2.2308000000000003,-0.1972164537500003,4.243515652214739,0.0,-20.03880214,-2.5048502675,AsI3
mp-867355,0.6528999999999999,-0.18554266999999994,3.264719377504657,0.13778853541666616,-13.94756404,-2.3245940066666666,TeBr2
mp-32042,,,,,,,
mp-504265,0.3613,-1.8841489301785717,3.6774179100821747,0.00552429000000032,-151.20019195,-6.3000079979166665,CuPO4
mp-562155,,,,,,,
mp-768110,2.4439,-3.0147260672023815,3.798857892205534,0.0,-435.63524285,-7.7792007651785715,Li2Ti3CoO8
mp-757514,0.33519999999999994,-2.48211333495614,3.234825396171074,0.06369905473684058,-243.44216954,-6.40637288263158,Li4Cu2Si3O10
mp-770067,,,,,,,
mp-7944,0.4158999999999997,-0.3280294581250001,3.9316591225535538,0.0,-48.77825205,-3.048640753125,NaSb
mp-29878,0.8085,-1.1236613591219642,2.904883399989333,0.0,-129.16196935,-4.0363115421875,Re2PCl13
mp-755530,1.665,-1.3607089733333335,2.9237054489397503,0.01004476708333346,-98.76584185,-4.115243410416666,Na3CuO2
mp-777603,,,,,,,
mp-768315,3.3252,-1.348563479814814,4.695464423276731,0.06242973305555655,-169.02391271,-4.695108686388887,Mg(IO3)2
mp-780113,3.9964,-2.207071526399559,3.0326345941551347,0.29563691847916296,-318.64241662,-6.638383679583334,LiMnP2HO7
mp-565886,,,,,,,
mp-699373,,,,,,,
mp-569984,1.1427,-0.8343645249245691,4.336914833130479,0.0,-162.35997814,-2.5368746584375,Cs3Au2Br11
mp-27480,2.6603,-2.227752899726,4.856631240250615,0.0,-52.42024039,-5.242024039,Sn2OF2
mp-32057,,,,,,,
mp-9055,1.063,-2.9037970548674066,4.096070737787183,0.01924247932098844,-90.97691984,-5.054273324444444,LiAlPdF6
mp-770692,2.4445,-2.1901234027777767,7.2204359860572955,0.0420439408333344,-239.39363899,-6.649823305277778,Ga2WO6
mp-573150,3.0623,-2.048185574796456,4.494788082985366,0.0,-377.21311475,-5.239071038194443,Cs2GeO3
mp-601401,3.8732,-0.6518003752512502,1.523331594143129,0.042931850555553375,-97.47932929,-6.092458080625,KCSN
mp-5156,5.3899,-3.2895978853392864,3.6662064427019128,0.0,-323.42426843,-8.08560671075,ThP2O7
mp-12637,2.8574,-3.36795586775,6.090547306056745,0.01553532600000018,-77.86094140000002,-7.78609414,Ba2NdNbO6
mp-1001021,0.23950000000000005,-1.5098783880059523,4.81068850489309,0.048198170357141024,-77.48880909,-5.5349149350000015,Y2ZnSe4
mp-989519,2.12,-1.8769279632882068,4.179855107231218,0.048419952256000716,-38.01639144,-3.8016391439999997,Cs2RbNF6
mp-767024,,,,,,,
mp-779376,,,,,,,
mp-761296,,,,,,,
mp-768983,4.6338,-2.8257044103653337,3.2826019764227943,0.039372106250000094,-189.35206903,-4.73380172575,Ba2YCl7
mp-772848,3.8577,-2.310407551255495,2.9466127158214688,0.030520145544873145,-157.97133915,-6.0758207365384616,K3ZnPCO7
mp-24422,4.1139,-1.3884465812066666,3.2520752266291932,0.0,-22.08293136,-3.68048856,CaHBr
mp-27349,4.999700000000002,-2.62163311275426,2.2634506200868643,0.0,-174.76371784,-4.854547717777779,BSF7
mp-697170,4.1225,-0.8980446265739391,2.494958067199473,0.0,-200.37041693,-4.553873112045455,MgH6(BrN)2
mp-25752,,,,,,,
mp-9710,3.2012,-1.391799015158223,3.818112881675269,0.0,-229.98535702,-7.666178567333334,Sr2Si5N8
mp-556910,2.5586,-2.129731399046364,4.466232542348067,0.0,-520.76218922,-5.9177521502272725,Sm3SiS6Cl
mp-28483,1.0698,-0.476675187142857,4.176017879354057,0.0,-26.11641202,-3.730916002857143,WBr6
mp-764564,,,,,,,
mp-849493,3.702,-2.630256434013333,3.1001802475329217,0.3745562450000017,-67.29627664,-4.806876902857144,Li2FeF4
mp-705361,1.9382,-2.476192217959956,2.813353518578186,2.2158236391401878,-309.3332589,-7.030301338636362,LiCrP2O7
mp-769573,1.4800999999999995,-2.8889353449999997,3.645052287319371,0.0554792359523848,-326.45724692,-7.7727915933333325,LiTiVO4
mp-555845,5.7451,-4.0002648383171096,4.468081683817209,0.0013911908333295029,-193.10663798,-6.436887932666666,BaLiZr2F11
mp-698475,4.8673,-2.4711069622989377,2.753508840721368,0.03335723620512887,-495.42630615,-6.351619309615384,K4ErP6H6ClO21
mp-767362,,,,,,,
mp-16737,4.7137,-2.737414033291666,2.3863984273668453,0.0,-136.65021567,-6.8325107835,Na2BeB2O5
mp-25479,,,,,,,
mp-779539,1.2146999999999997,-2.302942786488096,3.3625257753721485,0.05492453718750312,-97.47308481,-6.092067800625,Li2CuPO4
mp-549695,0.8529,-2.4399081497825,8.042076605183116,0.0,-59.60473305,-7.45059163125,GdBi2ClO4
mp-29644,0.5968999999999998,-0.2092111766666663,7.191415734699852,0.002912223333333852,-44.67681778,-3.723068148333333,GeBi4Te7
mp-28558,1.9935,-1.0975185280000002,3.557395496042787,0.0,-63.98567185,-3.1992835925,RbGeBr3
mp-861504,4.6593,-3.458589398916667,5.419346102407546,0.0,-165.96093275,-8.2980466375,PrBO3
mp-763343,,,,,,,
mp-554364,5.5284,-3.3283845532738083,3.5157334582508413,0.04421088267857876,-403.52527839,-7.205808542678571,MgBeAl4O8
mp-505141,1.4650999999999998,-0.8794768786536505,2.6105578527728555,0.0,-277.42425919,-4.0797685175,Cs2SnS14
mp-18591,3.9539,-2.5191232877244896,3.071651950320074,0.006852712440487353,-169.59868121,-6.0570957575,KZnPO4
mp-562135,,,,,,,
mp-28829,3.7769999999999997,-1.2700746061904764,3.6809356243416538,0.01717213901785719,-82.06213886,-2.930790673571429,Li2ZnBr4
mp-971661,1.3398000000000003,0.07971477630434821,2.0812846327058745,0.07971477630434888,-122.90454521,-5.343675878695652,Si
mp-752682,3.4191,-1.6754772298765432,3.998571272402461,0.053690059166666686,-88.33435881,-3.271642918888889,Ba2Sr7I18
mp-777193,,,,,,,
mp-558751,2.5445999999999995,-2.1508929855357146,6.695878618327467,0.0,-334.48966615,-5.9730297526785705,Ca(BiO2)2
mp-765336,,,,,,,
mp-765114,,,,,,,
mp-649915,,,,,,,
mp-558674,4.0922,-3.020481422814,2.9758159256131105,0.0,-47.99743297,-4.799743297,K2NaFeF6
mp-766905,,,,,,,
mp-755289,4.1806,-3.3821357286666665,4.122917339099648,0.04426387054166448,-118.37005284,-7.891336856000001,Li3Y3ZrO8
mp-614603,3.8572,-1.545933226465517,3.55494952644485,0.0,-5.51127789,-2.755638945,CsI
mp-20402,1.9313,-4.07585069868421,9.624003009652943,0.0,-166.80626203,-8.779276948947368,Lu6UO12
mp-3575,4.8226,-3.29819680310606,3.0065183527441506,0.0,-162.22265427,-7.373757012272727,Ca3(BO3)2
mp-773184,0.8064,-2.1346438173685627,4.810047260881956,0.04010290125000093,-98.70161884,-6.1688511775,Li2MnSnO4
mp-558289,1.5046999999999997,-1.7820182170272432,5.7720588324334905,0.0,-324.31940660000004,-6.236911665384616,UAg2(SeO4)2
mp-8000,3.6159,-2.844075668083333,4.358231754215297,0.0,-72.95530701,-7.295530701000001,SrSn(BO3)2
mp-29746,1.3805999999999998,-0.8126080660469843,4.283730622925344,0.0,-204.21126694,-2.836267596388889,Cd4P2Cl3
mp-626504,4.7475999999999985,-2.0927894306585713,2.3487258098911377,0.04063229357142628,-81.70261647,-5.835901176428571,Al(HO)3
mp-667315,0.9298000000000002,-2.095875445157825,3.255301884854049,0.0,-576.72997475,-6.268804073369565,ScNb6Cl13O3
mp-557829,3.0384,-2.2167611760624997,6.391309396585788,0.0,-248.57456061,-6.21436401525,Lu2Te5O13
mp-766636,,,,,,,
mp-1439,2.5301,-3.4804355099999995,4.200280285883418,0.03152922499999988,-107.31076123,-8.942563435833334,TiO2
mp-868149,,,,,,,
mp-721958,5.1958,-2.3025714691984724,2.208487278750592,0.0145514619827658,-351.98542768,-6.068714270344827,K4P4(H2O5)3
mp-13792,3.6681,-2.8024883497913526,3.223998158589933,0.0,-572.24899765,-7.529592074342105,KTaP4O13
mp-560555,0.8583000000000003,-1.851507199801588,5.386124472360287,0.0,-109.55900841,-5.217095638571428,Li8Bi2PdO10
mp-865975,,,,,,,
mp-36216,1.0979,-0.2687691432638892,6.468288900598442,0.007414001666667057,-19.88871082,-3.3147851366666665,Ag2S
mp-756118,4.456200000000001,-3.8494231024166665,7.872935465459541,0.08270014849999896,-165.34464198,-8.267232099000001,TbSmO3
mp-19272,0.24959999999999985,-2.7912981199999987,5.5155588283236865,0.0,-92.00972833,-7.667477360833334,TbCrO4
mp-775695,0.4661,-1.8003653597682907,4.62256575163863,0.4201509174107132,-175.60684904,-6.27167318,Li4Mn3V2Sb3O16
mp-778103,3.391,-2.460281154345238,4.4521653417936085,0.027265570178579782,-387.75691215,-6.924230574107143,Cd(BO2)2
mp-560977,1.222,-1.3436593421495535,2.2027404552386334,0.0,-85.06592344,-5.316620215,KTiPS5
mp-689684,1.1181,-1.7070091926275504,1.6548815476227128,0.7427750107142845,-180.73725366,-6.454901916428571,P2O5
mp-776528,,,,,,,
mp-755574,5.742999999999999,-3.7931049552499996,8.216249147425723,0.02120706895001589,-159.87619013,-7.9938095065,LuAlO3
mp-821,0.4321999999999999,-2.90446527375,5.646080119136657,0.003345855416666765,-436.89650878,-9.102010599583332,NbO2
mp-780884,,,,,,,
mp-29699,0.5208999999999997,-2.9127506202499998,5.197637357520724,0.0,-185.60093395,-9.2800466975,TiNb3O6
mp-763044,,,,,,,
mp-868279,,,,,,,
mp-763525,,,,,,,
mp-781010,2.0584,-2.4061324662873687,4.169288875987464,0.08679769236842283,-111.39254375,-5.862765460526316,Fe7(OF3)3
mp-565651,,,,,,,
mp-28157,7.0948,-1.6872082756330613,1.7371778476675714,0.003765698260199457,-317.43960145,-5.668564311607143,P(HO)3
mp-767321,0.3313000000000001,-0.994424724810606,2.6617348020878016,0.08667001045454502,-79.0102217,-3.591373713636364,Li7(SbS)2
mp-780561,2.8689999999999998,-2.9322177391249995,6.094259840269323,0.0,-558.16324529,-6.977040566125,La3Ga5O12
mp-23939,4.1525,-0.9356597105600004,1.8013686227286716,0.10586925281249916,-74.85377241,-4.678360775625,H2O2
mp-23040,1.7152000000000005,-1.4120666458928577,3.280646112410746,0.0,-16.58448698,-4.146121745,Ca2PI
mp-1019576,1.4498000000000002,-1.2367809271688883,2.9785513220264317,0.0,-225.44863476,-6.262462076666668,Ca4SiN4
mp-763918,,,,,,,
mp-18822,2.8032000000000004,-0.8746343444989728,3.7330730586590133,1.76587191375,-183.10114106,-5.721910658125,Mn2PO4F
mp-567878,4.1001,-1.1106004833333332,3.986865212246016,0.0,-77.27415124,-3.2197563016666666,AlTlBr4
mp-765035,,,,,,,
mp-771420,,,,,,,
mp-15704,3.5623000000000005,-1.4121361811899993,3.1928534707979983,0.0011642218749994269,-61.43258524,-7.679073155,BeSiN2
mp-776911,3.4257,-2.971310687291666,2.7257994136735726,0.09111934000000056,-47.14073104,-5.89259138,MgO
mp-24421,5.168799999999999,-1.3795621818758337,3.073992256277209,0.011948802083332488,-114.36110114,-4.765045880833333,BaH2Cl2O7
mp-583084,2.2822,-1.4729793187225282,3.2978732586992754,0.0,-528.64928088,-5.083166162307691,Rb3Er3(PS4)4
mp-761615,,,,,,,
mp-763563,,,,,,,
mp-20185,0.2161,-0.8911840516666665,9.62670975912503,0.0,-17.10332406,-5.70110802,LuNiSb
mp-561480,4.6107999999999985,-2.4043477137140004,3.919247962099138,0.12578670300000014,-84.84573509999998,-4.242286755,NaNiF3
mp-23852,4.6115,-1.788152063783333,2.06355981905946,0.001997225895062904,-209.48190572,-5.818941825555554,Na3H5(CO4)2
mp-644222,2.4635,-1.4599767907824999,4.3498936786079465,0.0,-30.9707261,-3.8713407625,CdHClO