id,band_gap,formation_energy_per_atom,density,e_above_hull,energy,energy_per_atom,pretty_formula
mp-763519,0.5069999999999997,-1.9442498444111496,4.5435177300988325,0.2977150470779266,-188.35346698,-6.726909535,Li4Mn3Nb2Co3O16
mp-765111,,,,,,,
mp-775180,0.5289999999999999,-1.762688416666666,5.728779167132691,0.1015807992857134,-173.54177429,-6.197920510357143,Li2Co3WO8
mp-26875,1.4347,-2.298271524300596,3.3108887975830794,0.059595799375003373,-194.79668923,-6.0873965384375,Li2CuPO4
mp-505558,1.1134000000000004,-1.2602749884505209,6.918015714159079,0.0,-124.26351805,-5.177646585416666,Dy3CuGeSe7
mp-23126,2.3602,-1.6425835454583328,3.914969932147022,0.0,-66.45343561,-5.537786300833332,KAs4IO6
mp-676951,2.8182,-3.712739320795456,7.58232541619454,0.0675292109090897,-188.96291274,-8.589223306363637,Dy3NbO7
mp-558045,5.1689,-2.6954816546130944,2.494727730364698,0.0,-196.35947874,-6.136233710625,NaLi2PO4
mp-6280,5.6953,-3.5437443822088883,3.437624874374033,0.0,-258.52801559,-7.181333766388889,Al2Si(O2F)2
mp-996969,1.4297999999999995,-1.158732262708333,7.700585050109362,0.002548532625000988,-39.69041085,-4.96130135625,AgBiO2
mp-560001,,,,,,,
mp-30032,2.0261,-0.8343845899999996,5.509519642510358,0.09522835125000118,-51.7492628,-4.312438566666667,TlIO4
mp-760188,2.2294,-3.0873204806763637,4.152078536127888,0.007971139577927389,-381.61859529,-8.673149892954545,Nb3O7F
mp-704197,1.6961,-2.5071914348443234,3.3146864786157444,0.1061558384615502,-354.07145989,-6.8090665363461556,Li2Mo(PO4)2
mp-849429,1.5984999999999998,-2.2181313892909102,3.700654382629049,0.44107303295454425,-103.88653114,-4.722115051818182,Li3Co2OF5
mp-766730,,,,,,,
mp-556826,5.4567999999999985,-3.1213264709523805,2.963991368410943,0.01688051946428004,-650.28229428,-7.741455884285713,Ca(BO2)2
mp-758379,0.9859,-3.756351514583335,6.602583597795512,0.033882420613640114,-414.57380739,-9.422131986136364,Y11Ta5O28
mp-762722,,,,,,,
mp-764218,,,,,,,
mp-777787,3.6679,-2.793070968333333,6.658086090220118,0.0691705133333329,-171.92801846,-7.163667435833332,HoAsO4
mp-24405,1.8569,-1.9247630534244868,5.075349777239719,0.0,-291.17970041,-5.599609623269231,LiCd4Ge5HO15
mp-557056,,,,,,,
mp-850914,2.5802,-2.7636665470127273,2.6988714951455317,0.3261995687878789,-325.19623022,-4.927215609393941,Li4CrF6
mp-30529,4.7471999999999985,-0.1407741019679163,0.658533344452667,0.022229788430389696,-285.14576846,-4.4554026321875,B5H11
mp-540870,,,,,,,
mp-22887,1.2143999999999997,-2.751613127173334,4.760382876411912,0.0027104700000011306,-84.21833924,-7.018194936666667,EuCl2
mp-573202,2.2944000000000004,-1.2407260640000004,3.7394971944781608,0.0,-166.35974906,-5.198742158125,K3Ta2Ag3S8
mp-779046,2.0374000000000003,-2.5281230881547625,2.8938105422891867,0.031380441718750866,-197.77137164,-6.18035536375,Li5Cu(PO4)2
mp-625560,3.8402,-1.2051534980990908,1.995693875593876,0.015899112575760373,-100.61753611,-4.573524368636363,H7BrO3
mp-32320,,,,,,,
mp-560670,3.1258000000000004,-1.88468986094618,3.5272923373111733,0.0,-133.53443374,-5.563934739166666,MgSeO4
mp-14169,0.3374000000000001,-3.4718769104758973,4.665490984543016,0.01939920487179769,-301.70360932,-5.801992486923077,Li4UF8
mp-13664,2.928,-3.511312623825758,6.791602925300388,5.6008636363458215e-05,-190.87722842,-8.676237655454544,Sr2Ta2O7
mp-30942,6.5478000000000005,-3.9652263152377785,4.07509981432738,0.0022839525490203627,-279.60492669,-5.4824495429411755,Ba6Mg11F34
mp-770394,1.4146,-2.1129203681857143,2.839038415612715,0.20066537400000414,-319.15229247,-6.3830458494,Na5Fe2P2(CO7)2
mp-771557,,,,,,,
mp-628618,0.6046,-2.2235605335140742,5.77220636199916,0.0,-375.37488506,-6.9513867603703705,Ba5Os3NO18
mp-8804,2.6145000000000005,-0.8681339467745449,2.9048014614980127,0.0,-127.31706885,-5.787139493181818,Li6MoN4
mp-776836,,,,,,,
mp-703231,2.8381,-2.3921849097551013,3.695870909953858,0.0,-238.73895429,-6.821112979714286,CdFe2Sb2(PO4)6
mp-777955,,,,,,,
mp-763673,,,,,,,
mp-40685,2.2791,-3.1220871901136373,6.0946616529040325,0.0037704981818098564,-335.27722006,-7.619936819545455,NaSm3Ti2(SbO7)2
mp-765547,,,,,,,
mp-626435,4.9665,-2.1124338528014284,2.393812533935761,0.020987871428568283,-163.95527676,-5.855545598571429,Al(HO)3
mp-769860,,,,,,,
mp-9380,3.0655,-2.350372296994048,4.687908087507534,0.0,-273.82718745,-6.5196949392857135,SrGe4O9
mp-557748,2.4943,-1.9492349354908327,3.769950777504261,0.08844276697916875,-574.61136489,-5.9855350509375,SbIrC2(OF3)2
mp-752671,4.0581000000000005,-1.7503430729629628,3.8540635798337584,0.018168464722222662,-91.27369488,-3.3805072177777777,Ba2SrI6
mp-696656,7.0587,-2.141564680388333,1.8738999740266449,0.0,-215.22786172,-5.380696542999999,BH4O2F3
mp-557028,3.0179,-3.5668042665931363,6.857605373125192,0.01980682955881541,-151.22629414,-8.89566436117647,Sr2LaTa3O11
mp-753022,1.5020999999999998,-2.157253088214286,4.750012862397622,0.10763811339286278,-161.23907918,-5.758538542142857,NaGa5O8
mp-567167,,,,,,,
mp-773906,4.9205000000000005,-2.6959615423204752,2.59513257139569,0.0,-574.06781495,-6.834140654166666,KNaZrSi3H4O11
mp-10614,0.8281999999999998,-0.9031374073015872,3.0637035296722717,0.07467016500000012,-11.72110219,-3.907034063333333,SrLiP
mp-763025,,,,,,,
mp-769922,0.5903,-2.5883290921428572,4.420382742776939,0.0550900360714266,-110.65013703,-7.903581216428571,V2SiO4
mp-765872,,,,,,,
mp-14215,1.0183000000000004,-0.9066508925595242,4.284293193022224,0.004171327152777239,-336.85117143,-4.678488492083334,Ba4GeP4
mp-486,0.4078999999999997,-0.3608088540476189,4.476788362142083,0.010902950833333593,-35.37764017,-5.896273361666666,NiP2
mp-561124,3.7087,-2.494140922778251,5.256367821086946,0.007390994916669058,-259.96445347,-6.4991113367499995,Ho3Se4O12F
mp-694994,1.1317,-0.5118459501033337,1.6049832468251193,0.5618553347582491,-192.65408722,-4.587002076666667,CoH22N7(ClO2)4
mp-531792,5.5183,-4.143849520939473,4.767305849282357,0.0,-520.82178126,-6.8529181744736825,LuZr3F15
mp-541911,2.2439000000000004,-2.1950425768799993,6.899026325545457,0.0,-51.49727133,-8.582878554999999,HfNCl
mp-28853,1.8007,-2.3240505292500004,8.212663111193907,0.0,-130.26855079,-6.5134275395,LaAuO3
mp-560358,4.102600000000002,-3.3081181067994505,3.597097945911881,0.0,-218.27699518,-8.395269045384616,Zr2P2O9
mp-680689,1.8642,-3.2983877772395833,2.3127331407294007,0.24454088593749826,-260.38006598,-8.136877061875,SrTi2O5
mp-542550,2.3924,-0.8605753288978685,3.4567809988745646,0.0,-151.44928561,-4.2069246002777785,Cs2Si2Se5
mp-759534,0.5629999999999997,-1.9535134947800932,4.353636978032746,0.09742413054977116,-212.42390749,-5.900664096944443,LiBi2(SO4)3
mp-6759,4.0089999999999995,-2.9895880315384606,3.8477115168898797,0.0,-366.60760056,-7.050146164615384,BaGa2(SiO4)2
mp-667314,1.2375999999999996,-0.9381951990678266,5.856391196449023,0.04884847782608759,-315.98889572,-6.86932382,Ba9(TaN6)2
mp-675751,3.1558,-3.4125058441755,5.7426739290750435,0.04843279200000517,-381.38257165,-9.53456429125,Zr7N2O11
mp-29696,1.2427,-1.4349287217500002,2.9027096258051763,0.08505263138889152,-76.70189972,-4.261216651111111,K4Sb2O3
mp-19553,,,,,,,
mp-15182,4.2865,-0.29882481912166625,2.3392432519934365,0.10089549734375057,-237.66991589,-7.4271848715625,Rb2LiCo(CN)6
mp-762176,,,,,,,
mp-561195,,,,,,,
mp-768959,2.0394,-1.9253363147453717,2.8363954755571616,0.05957549145061593,-347.60337667,-6.437099567962963,Na4Sb2C4SO16
mp-15408,5.2165,-3.07175536296,3.3266803173872197,0.0,-226.00977264,-4.70853693,KGaF4
mp-642284,,,,,,,
mp-767287,,,,,,,
mp-997543,,,,,,,
mp-1020125,4.5985,-3.216567702666667,2.9977913214961385,0.029025689749992974,-573.44194386,-7.168024298250001,MgSiO3
mp-773524,,,,,,,
mp-1019557,4.6759,-2.1614966110416667,2.8188355380901067,0.0,-219.82304078,-6.106195577222223,BaS4O13
mp-23558,0.4141999999999997,-0.9289624271527774,8.217745100824818,0.0,-111.44898185,-4.643707577083333,Ag2BiO3
mp-764092,,,,,,,
mp-28294,3.5093,-2.6863867155772225,4.026649465188419,0.0004647485879605284,-503.13506766,-4.658658033888889,Sb11F43
mp-566467,,,,,,,
mp-540378,,,,,,,
mp-971678,2.3343,-1.7356399306250008,4.987901913523247,0.0,-123.19796836,-5.133248681666667,Na3Ni2SbO6
mp-777191,,,,,,,
mp-774076,,,,,,,
mp-762344,0.2511999999999999,-2.499600758425927,4.154256274296195,0.09091452754629437,-375.86569256,-6.9604757881481465,Na8Nb5O14
mp-770538,0.7684000000000002,-1.9194833932564717,3.6443853617973363,0.5071519618749907,-227.83677196,-7.11989912375,Mn2PO5
mp-767310,,,,,,,
mp-761324,0.3386000000000005,-2.190326165952381,4.056378007674959,0.056366483482143785,-86.52616069,-6.180440049285713,LiSiNiO4
mp-18803,4.7521,-2.219659047142857,4.882345568913016,0.0,-87.50369537,-6.250263955,Na2WO4
mp-756014,3.0638000000000005,-3.2222847293181824,6.551650293605449,0.06324027590908976,-157.10438585,-7.141108447727272,Ba4HfO6
mp-7909,1.6183999999999998,-0.4665617128571432,4.750712340873892,0.0,-24.23649015,-3.462355735714286,Al2CdTe4
mp-757479,2.2921,-2.497431503972663,2.7789367396507187,0.0854263367407384,-184.14248490000003,-6.820092033333332,Li2Sn(PO3)6
mp-15794,1.5373,-1.7012232386718749,4.504591323145908,0.0,-22.17171342,-5.542928355,LiYSe2
mp-558115,5.6221,-3.2694271301666675,1.7003260970431742,0.008570538999999044,-948.92011932,-7.907667661,SiO2
mp-560845,1.4091000000000005,-0.5523574028086368,3.8021140585964037,0.028648488238637526,-91.67009713,-4.166822596818182,Cu2As4S3Cl2
mp-778696,,,,,,,
mp-550514,0.6713999999999993,-2.230348266201999,9.057112896597934,0.0,-96.19227112,-9.619227112,LaTaN2O
mp-773340,,,,,,,
mp-25019,,,,,,,
mp-27403,0.2609999999999997,-3.7221107018023813,6.076856044612738,0.03562292690476987,-370.86286756,-6.622551206428571,LiUF5
mp-763664,,,,,,,
mp-18710,1.0496,-1.1240990546259473,6.1147925313924185,0.0,-97.51626637,-4.432557562272726,RbSm2Ag3Se5
mp-759341,0.33630000000000004,-2.4994318457101814,2.775392471859224,0.07217552139653716,-386.24023043,-6.6593143177586205,Li4Cu(PO3)6
mp-604,2.4206,-3.028489100178572,4.948066052775321,0.016641557551047015,-125.26072225,-8.947194446428572,Nb2O5
mp-849335,1.6488999999999998,-2.6633252835637498,3.880057586860125,0.027535163445000062,-147.26740314,-9.20421269625,Ti3N2O3
mp-566084,,,,,,,
mp-27801,1.5638999999999998,-0.4494789120833338,6.596255187576888,0.03159876625000013,-20.08023151,-2.51002893875,TlAgI2
mp-703461,5.607900000000001,-1.6402181247005554,2.514537247581229,0.022072975050742016,-354.93296725,-4.929624545138889,GeH8N2OF6
mp-755210,1.5766999999999998,-3.1073312316987183,5.581587906622731,0.1043096401923016,-104.17767626,-8.013667404615385,Y4Cu2O7
mp-775643,,,,,,,
mp-565637,,,,,,,
mp-531296,1.9832,-0.8197203255357144,5.422137079570941,0.027103397678571284,-253.38153981,-4.52467035375,Ge(PbS2)2
mp-554508,5.065,-3.1422651581569268,2.8188473641248284,0.0,-330.75048139,-7.517056395227272,KYP2O7
mp-850745,,,,,,,
mp-763535,0.9595000000000002,-2.416823155474065,3.8057865046367167,0.09938822560119398,-203.13542383,-7.2548365653571425,LiP5W3O19
mp-975958,2.2123,-2.6061114722511114,2.8266625269686623,0.031737275443122215,-94.73158363,-5.2628657572222215,KNaMo(OF2)2
mp-29151,1.9433,-1.2950183477791666,1.7832979265628266,0.005359962500000036,-30.36493519,-3.79561689875,Li5NCl2
mp-625056,,,,,,,
mp-28110,0.5470000000000002,-0.7803187172222223,4.88146665864355,0.0,-24.1988987,-2.6887665222222217,Rb2PtI6
mp-753546,2.2925,-1.599557976472222,1.7723366793991433,0.0,-135.99548903,-4.533182967666666,Li8TiS6
mp-865120,2.9573,-3.4616948317500005,6.078220879655267,0.0,-40.87235823,-8.174471646,NaPaO3
mp-17803,1.1999,-0.9739939305514708,4.6862525346416,0.0,-168.82001423,-4.9652945361764695,Nb2Tl4S11
mp-13774,4.4775,-3.3012636955952384,4.6966163975109145,0.0,-619.14317537,-7.3707520877380945,NaNdSiO4
mp-754415,2.5817,-3.753263960795456,7.4774241730621425,0.013127552613640958,-190.01993038,-8.637269562727273,Tb3NbO7
mp-8962,1.9672,-2.446571749965714,4.856736826849676,0.0,-25.07289995,-3.58184285,Rb2HgF4
mp-1019089,1.1621,-0.6837374871111107,2.7899712862331736,0.0,-18.83403077,-3.1390051283333333,KMgAs
mp-31645,,,,,,,
mp-20716,2.9091,-1.46492077421875,6.6454577113094855,0.0,-54.54020261,-5.454020261,PbSeO3
mp-771185,2.9353,-2.130228350805555,3.2243820555687237,0.0,-311.13722193,-5.761800406111112,K2Ge2O5
mp-866302,4.822,-1.9893447406596632,3.1629179053420167,0.0,-224.68106274,-6.608266551176469,BaNaP3H3(NO2)3
mp-561491,5.211499999999999,-3.2377459234773336,2.7864544522475723,0.0,-137.36264983,-6.868132491500001,KNaMg2Si4(O5F)2
mp-694979,2.3183,-2.6492068287218045,2.9771552493033377,0.10488475407894617,-267.55713769,-7.04097730763158,Na2TiFe(PO4)3
mp-560673,6.1559,-3.0952795828012505,4.443093950141836,0.0,-211.14289701,-6.5982155315625,NaPr2S2O8F3
mp-14972,3.4742,-3.2909115484114597,4.7095719041646005,0.0,-737.95876508,-7.6870704695833325,Ba3Sc(BO3)3
mp-764981,,,,,,,
mp-504593,3.2437,-1.71728475909625,5.869435540091014,0.0,-182.53970141,-5.7043656690625,Pb2CCl2O3
mp-767353,,,,,,,
mp-559150,3.9694,-2.709331954920829,2.7493333911846722,0.0,-195.1846402,-6.296278716129033,Na9ZrP4ClO16
mp-40830,1.8648,-3.5250437801499994,4.967811531853075,0.0,-405.20602921,-8.1041205842,NaSr3LaTi5O15
mp-680387,0.6184000000000001,-3.1893187806439403,3.9078183387635312,0.4644552868560563,-347.58367992,-7.899629089090909,PrYSi2O7
mp-3727,2.6468000000000003,-3.639920264431818,6.560762153064668,0.01340353022727392,-188.32903172,-8.560410532727273,Nd3NbO7
mp-849430,3.9039,-2.569380388259284,3.462049904137272,0.00026451107143188324,-385.95920206,-6.8921286082142865,Li8MnFe7(PO4)8
mp-540927,0.6320999999999999,-2.1194993592642857,2.59105163331825,0.0,-109.3543959,-4.5564331625,UPCl10
mp-23418,1.9324,-0.746897863967143,6.2413525823003315,0.0,-31.18570759,-2.227550542142857,Hg3(SCl)2
mp-22220,4.433699999999999,-3.9976995812499987,8.196102829055295,0.010578966749999807,-168.72980775,-8.4364903875,LaLuO3
mp-707182,2.5299,-1.8603481263133337,3.4827036185673124,0.0,-506.52605345,-6.030072064880952,UAsH9O10
mp-559427,2.0717,-3.6476238483712127,6.4602420959205356,0.0,-364.4763342,-8.28355305,BaSr4U3O14
mp-31824,,,,,,,
mp-756160,3.3648,-3.861013299886365,9.089845496589092,0.03596977772726717,-195.50171252,-8.886441478181819,Er3TaO7
mp-761654,,,,,,,
mp-555609,1.7883999999999998,-2.5003947426724142,5.040807636627341,0.0,-160.39235114,-5.530770728965516,Sr9Zn4(CuO7)2
mp-18754,0.24970000000000006,-2.793479925,5.650405113605812,0.0,-91.98075147,-7.6650626225,DyCrO4
mp-767745,,,,,,,
mp-569608,3.0652,-1.1202544998380155,1.8146028013828743,0.0011437133333318528,-222.52367030000002,-4.635909797916667,BP2N2Cl7
mp-7388,2.0495,-2.0286409291266665,5.502712317893582,0.0,-44.88030131,-3.7400251091666665,NaAuF4
mp-35264,1.4637999999999995,-1.6829256997916673,6.574060854969245,0.015930991290924013,-78.2652764,-5.590376885714287,Pr5AgSe8
mp-18203,3.6226,-2.492477841039681,3.571134834360235,0.0,-244.79573311,-6.799881475277778,KGe2(PO4)3
mp-558943,2.2758000000000003,-2.720627493240741,5.053455954869874,0.0,-135.63696235,-7.535386797222222,LiUAsO6
mp-3038,1.43,-0.6898538027678575,5.014468884690394,0.0,-26.60740321,-3.801057601428572,Al2HgSe4
mp-769696,,,,,,,
mp-849586,,,,,,,
mp-565747,,,,,,,
mp-755109,4.5444,-3.925785323916666,7.141933613924711,0.09752505049999982,-173.59768993,-8.6798844965,YErO3
mp-581143,0.5223,-1.8178362447516672,3.5701954946583863,0.0,-120.43709033,-5.0182120970833335,RuOF4
mp-775098,,,,,,,
mp-5392,3.5077000000000003,-2.888848136309523,3.0769605352403953,0.3428577089285589,-183.28712527,-6.545968759642856,Mg2SiO4
mp-777814,1.3577,-1.889350724916667,3.939490862609252,0.07387753900000328,-147.83569429,-4.927856476333333,Na6Sn2O7
mp-765917,1.842,-2.912194955429629,3.3373177352017307,0.21067095638888755,-162.80341779,-6.029756214444443,LiV2OF5
mp-603423,,,,,,,
mp-5478,1.0903,-0.9533538543749992,8.399832999077612,0.0,-85.00121290000001,-5.31257580625,TlPd3O4
mp-763882,,,,,,,
mp-779592,3.2446,-4.143859663313332,6.867571016607663,0.06631538750000132,-128.69566733,-10.724638944166664,GdOF
mp-767819,,,,,,,
mp-571177,1.2572,-0.2844254428571428,6.947859922570309,0.010937125357142865,-49.3976105,-1.764200375,Hg3Te2IBr
mp-19421,2.3952,-2.0979684750000005,7.090244770279603,0.0,-87.82779247,-7.318982705833334,FeWO4
mp-771465,,,,,,,
mp-560158,4.2648,-2.6339878720614034,2.574159436151478,0.0,-524.38202834,-6.899763530789473,Na3Zn(BO2)5
mp-559115,1.4220999999999997,-2.401885385129286,2.7595931651863563,0.0,-415.68869531,-5.1961086913750005,P2RhClF6
mp-849444,2.8459000000000003,-2.695067367575757,3.6890627249003183,0.0891972515909103,-313.37402817,-7.122137003863636,Li2Ti2NiO6
mp-780153,,,,,,,
mp-555838,3.6997,-2.518338260168571,3.6340093461845684,0.0,-154.69262777,-6.445526157083332,SnPO3F
mp-6948,2.1325,-1.3368313814166664,2.5097140920104883,0.014802455000000325,-21.35756313,-3.559593855,KNaO
mp-616587,4.8466000000000005,-2.688196627464285,2.9241983717541427,0.0,-260.57439582,-6.514359895499999,RbPO3
mp-698032,2.519,-0.35228669003090896,2.424335232368356,0.0,-159.05747338,-3.6149425768181818,Na3H7Ru
mp-567431,3.6359,-2.638258405608,4.450448228997502,0.0,-51.24110837,-5.124110837,ThCl4
mp-18843,1.4702000000000002,-2.5164459143181817,4.615491891134711,0.01613493954545664,-288.9123707,-6.5661902431818175,Ca3FeRhO6
mp-757590,3.4943,-2.4222400494982987,3.785801487277431,0.059965305178565124,-362.02276733,-6.464692273750001,LiSnPO4
mp-977455,0.9148999999999998,-2.8475808014166675,7.823288799229584,0.0,-39.32209413,-7.864418826,PaAgO3
mp-769829,,,,,,,
mp-559587,0.7827999999999999,-1.320606541607143,5.3376505947876645,0.03119922619047522,-287.80299662,-5.1393392253571415,CuSb2BrO3
mp-561380,1.1550000000000002,-1.2543934603186269,6.359496994283089,0.014908316470587657,-172.53054163,-5.074427695,Ag2Te4O11
mp-558153,3.3536,-3.8194025780807936,4.706009430409131,0.0,-827.21727331,-6.565216454841269,Ba4Nb2(OF4)3
mp-568032,0.8688,-0.5698557641964282,5.141093711160323,0.004139324285715063,-24.3822065,-3.483172357142857,Cd(InSe2)2
mp-636464,,,,,,,
mp-603567,,,,,,,
mp-28481,2.9099,-0.8949135165733327,2.2268552535861525,0.0,-199.26857619,-4.744489909285714,Ti(ClO4)4
mp-667380,3.4487,-1.564860361833415,2.716790627440796,0.0,-1051.36952327,-6.410789776036585,Rb3Nd2(NO3)9
mp-26701,2.4807,-2.534746892535713,3.508539330624151,0.02966292912499835,-526.37655832,-6.579706978999998,Li3Sn2(PO4)3
mp-779964,,,,,,,
mp-775679,0.6962999999999999,-2.1614679094770604,4.061190114863842,0.0030916038928543443,-392.50534647,-7.009024044107143,Li2Mn3CrO8
mp-976280,4.9350000000000005,-1.5688565508333334,2.788734743930009,0.0,-13.36712499,-3.3417812475,LiBr
mp-780922,,,,,,,
mp-756347,1.4655000000000005,-2.450346493674243,8.263414266781814,0.0,-163.49486889,-7.431584949545454,Y2Pt2O7
mp-780171,2.8622,-0.9708494050138888,2.7452730664194807,0.0036581698611097844,-301.3691947,-4.1856832597222215,HgH10N2Cl4O
mp-5338,3.9132,-1.5116436144687495,4.432244254961534,0.0,-200.40469249,-5.01011731225,ZnSeO3
mp-3118,2.9128,-2.5590719452500004,4.303758356121331,0.0,-117.99740189,-5.899870094500001,Mg3TeO6
mp-12362,0.7092999999999998,-1.0168039941666662,8.503908144469017,0.004118544772727439,-89.06250490000001,-4.048295677272727,AgHg3SbO6
mp-553923,1.0986999999999998,-0.9650264389791668,3.1960969193457447,0.013209441734377771,-123.17799006,-3.849312189375,K2AgSbS4
mp-754869,3.8301,-1.5245452760185183,4.057017723910026,0.02583289527777488,-87.86479936,-4.881377742222223,Sr(IO3)2
mp-691131,,,,,,,
mp-776688,1.2167999999999997,-2.4417628672499987,4.206650500184328,0.08672493350000643,-158.98609233,-7.949304616499998,V2O3
mp-567394,0.20750000000000046,-0.5847338845192295,6.5938789350991165,0.05518814450549403,-81.97946280000001,-6.306112523076923,Ga(MoSe2)4
mp-4434,5.598200000000001,-3.74958099925,7.393140335606153,0.00900009375002675,-159.45937333,-7.9729686665,TbAlO3
mp-680679,0.9267,-1.7341958196907907,5.32365000386703,0.0014092594736823114,-101.15388943,-5.3238889173684205,K2Ho4Cu4S9
mp-6384,4.1056,-2.332263576863,2.696207558457864,0.0,-52.05344579,-5.205344579,RbSO2F
mp-695963,2.5046,-1.448735876029166,2.58141895948342,0.0,-229.36142458,-4.778363012083333,K2NaH10IO10