id,band_gap,formation_energy_per_atom,density,e_above_hull,energy,energy_per_atom,pretty_formula
mp-557531,3.7117,-2.261415560611666,6.688811322478834,0.0,-102.14934231,-5.6749634616666675,Pb2S(O2F)2
mp-7972,3.5458000000000003,-2.9685412062500003,5.277807924295238,0.0,-26.28203694,-6.570509235,RbLaO2
mp-1020628,4.0962,-2.8051083332341267,3.7917058768986736,0.0,-169.52037671,-7.063349029583333,SrGe(PO4)2
mp-754226,3.3369,-3.983188822416667,6.975196512571406,0.07356700149999895,-87.27993139,-8.727993139,YLuO3
mp-22981,2.7745,-0.97995814175,6.5337134403252195,0.0,-21.5224491,-4.30448982,TlIO3
mp-555202,5.0309,-2.41125383345375,3.2528296527905267,0.002470730781258368,-73.42266642,-4.58891665125,KTeHOF4
mp-744639,2.1698,-1.3116000352326664,5.2627435807086815,0.015017155000004225,-160.5036321,-5.35012107,Cr2Hg2H2O9
mp-715324,,,,,,,
mp-7013,5.093300000000001,-3.5983685953125013,6.341466647482037,0.0,-189.9342311,-7.913926295833334,Ho2Be2SiO7
mp-32662,1.5008,-2.170812473437499,6.107562242886439,0.003851986249999939,-180.16423662,-7.5068431925,WO3
mp-703352,2.5368,-1.899765693288304,3.411623719499879,0.07623412560714105,-406.6892443,-6.3545194421875,UP2H6O7
mp-733844,3.9896,-2.3920353570960504,2.8726707263349467,0.0,-206.29278854,-6.067434957058825,Na3GaP2H2O9
mp-4632,5.4085,-3.3296467613186818,4.358853195014466,0.0,-93.14574713,-7.1650574715384625,Sr3(PO4)2
mp-559584,2.3521,-2.9151048687562966,3.2209129783374983,0.011197915925924562,-84.56690402,-4.6981613344444435,LiCaNiF6
mp-760231,3.0522,-2.531968758048941,3.6967015443675457,0.008942353749990417,-490.62717467,-6.814266314861111,LiSn2(PO4)3
mp-7812,3.2779,-2.0885196833333324,3.683087672767596,0.0005611841666679496,-77.49760647,-6.4581338725,GeO2
mp-622171,2.5139,-1.9138557092187491,4.951728812519923,0.14761659906249225,-208.79011343,-6.5246910446875,VSb2O5
mp-8187,1.9786,-1.5920053966999999,3.3048101198718878,0.0,-39.86323284,-3.9863232839999996,K2ZnO2
mp-763965,1.5217,-2.6604409186233333,3.312647504489622,0.014322437187493263,-159.24865949,-6.6353608120833325,V2(OF)3
mp-560687,0.4605000000000001,-0.567537029671053,4.786195284811031,0.0,-324.58902019,-4.270908160394736,Nb3Te8I7O
mp-773547,2.8500999999999994,-2.6946995783818184,3.4533688190376157,0.1098972640909075,-116.37894828,-5.289952194545455,Li3Fe2OF5
mp-4672,2.177,-1.479159925178572,3.76453014061596,0.0,-262.51656784,-5.469095163333333,TbPS4
mp-557778,3.2071,-3.044719074322915,3.5883171255698296,0.0,-745.09571647,-7.7614137132291665,RbNbSiO5
mp-773116,1.9464999999999997,-2.6396435324375003,4.972143041862205,0.006035353349999717,-671.32938066,-6.7132938065999985,La20S29O
mp-769409,3.5484,-3.4207285613055562,4.8864350317492,0.0196878138833334,-485.76958442,-8.096159740333333,Y4Ga2O9
mp-770759,3.7031,-1.976933449412879,3.533902330121533,0.06349921871211972,-139.92205029,-6.360093194999998,LiBiCSO7
mp-778773,,,,,,,
mp-764036,0.4220999999999999,-1.5603254217896998,4.244411563735613,0.6433122393333459,-186.35918013,-6.211972671,Li3Mn3CrO8
mp-31721,,,,,,,
mp-703398,0.2922,-1.1685413761371153,2.192425458824088,0.08794978900615114,-393.60627492,-5.046234293846154,CuH20Se2(NO7)2
mp-25032,,,,,,,
mp-761412,,,,,,,
mp-772122,,,,,,,
mp-7128,1.9278,-1.7154252463888886,5.672598274463231,0.0,-51.13603893,-5.681782103333332,Cd(AsO3)2
mp-3502,3.3008,-1.6186016249999993,5.266318106277439,0.0,-133.91193775,-5.150459144230768,Zn2Te3O8
mp-849783,2.2379,-0.8190717905353223,1.9227702452546889,0.09735877563852746,-661.54860967,-5.335069432822581,TeH14C3S3(N3F2)2
mp-978275,1.4634999999999998,-0.1309735664583327,2.6183283054703264,0.0,-197.60167576,-6.1750523675,MgB7
mp-559859,,,,,,,
mp-762281,,,,,,,
mp-9755,4.1244,-3.0689937958333324,8.265722127033019,0.0,-99.9426421,-8.328553508333334,HfGeO4
mp-707206,3.6426,-1.5460192772284864,1.9558891298658,0.03887649311987307,-386.00921189,-5.7613315207462685,TeP6H30(NO4)6
mp-775575,,,,,,,
mp-753610,3.5645999999999995,-1.643014175,4.078877241583164,0.07789202458333344,-39.74510975,-3.3120924791666666,BaCaI4
mp-770343,2.7009000000000003,-2.584685141597222,2.792098999765392,0.07817647916666283,-331.90448210000005,-6.914676710416668,Li3V(BO3)2
mp-769668,,,,,,,
mp-756908,3.2842,-1.9835570748214288,3.4437724022270806,0.09559248671428833,-145.9106563,-5.211094867857144,Li3SbO3
mp-14448,1.1018,-1.062016310714286,4.972888123582751,0.0,-58.53730042,-4.181235744285714,Ba2SiTe4
mp-779907,3.4271,-1.8236602096843268,2.5811872936112925,0.4440043684999937,-485.97974238,-6.07474677975,LiMnPH2O5
mp-775164,2.2504,-2.576021989523809,4.1815268420456215,0.004647927142857,-427.47569904,-7.633494625714285,Li2NbCr3O8
mp-679944,1.5867,-1.0855940829067454,6.090501822032844,0.02372238952380279,-573.2128752,-6.8239627999999986,Li4Re6S11
mp-763623,,,,,,,
mp-680172,2.3544,-0.5903979237878788,5.07443710671446,0.0016084145454544616,-125.95912299,-1.9084715604545452,CdI2
mp-24409,3.7095,-0.18829773634190455,2.7952309092904937,0.0,-42.05205598,-3.5043379983333334,PH4I
mp-762247,,,,,,,
mp-562283,1.6616,-1.6441345184722218,8.022824202779534,0.0902238027777793,-51.78081829,-5.753424254444443,GePb3O5
mp-675189,0.4371999999999998,-1.1092979790909092,6.995847564628848,0.011125532954545214,-106.49864879999998,-4.840847672727271,Ho7(CuTe4)3
mp-540310,4.4350000000000005,-2.567290912388717,2.647630127335824,0.06223768602173507,-321.86316634,-6.997025355217391,Li2Mo(PO3)5
mp-10481,0.25619999999999976,-0.3870057179166668,6.162884906303067,0.0,-36.17351482,-3.0144595683333333,RbAg3Te2
mp-24917,,,,,,,
mp-752717,4.5002,-3.7801170189062496,5.044689822172572,0.008159814999999071,-267.05867344,-8.345583545,La2SiO5
mp-865973,5.4991,-2.731439669220816,5.4500033308272124,0.0,-68.52385833,-4.894561309285714,PHPb2F10
mp-37836,4.9082,-2.101482268515714,2.3753639592033866,0.031939455714282694,-81.8243162,-5.844594014285714,Al(HO)3
mp-851268,,,,,,,
mp-758234,3.1945,-2.335305247344322,6.400849253435816,0.009434280128193251,-517.73179403,-6.637587102948718,P2Pb3O8
mp-722369,4.6581,-2.5310183946953324,2.4379755142618125,0.004175314749985226,-547.56047251,-6.844505906375001,Na3B5(HO5)2
mp-867953,3.9865,-1.7182330312962963,3.8429367889924335,0.028377676481481377,-91.3366682,-3.382839562962963,Ba2CaI6
mp-42599,2.718700000000001,-3.384544780183939,4.377277943870052,0.05335604931818239,-359.59676428,-8.172653733636364,NaYTiNbO6F
mp-743571,2.2989,-1.0455603037084875,3.103268803482215,0.9991906869230744,-289.6413068,-5.57002513076923,Mn2Si(H2O3)2
mp-752638,2.4611,-1.692319437569445,3.265488624029472,0.04319446666666682,-152.5032495,-6.3543020625,LiCuCO3
mp-554433,4.755000000000001,-3.232343245050002,2.3869428286321943,0.003644680124996745,-588.0014507999999,-7.350018135000001,KAl(SiO3)2
mp-850445,2.9931,-1.677427416516829,3.0316873002460727,0.017174784634143236,-422.53808707,-5.152903500853658,Na3Zn4As3H12O19
mp-673126,4.3239,-2.4815494650529093,3.088508898273694,0.05066227666667356,-246.61388376,-6.85038566,LiSb(PO3)4
mp-8234,0.8129999999999997,-0.88510034375,5.982170816681259,0.0110682612500006,-29.77854999,-3.72231874875,BaTe3
mp-756672,3.8360000000000003,-2.6687948989311594,4.371519031988405,0.07655644902173986,-614.71208225,-6.681653067934782,Li4Si4Bi2O13
mp-764111,3.9641000000000006,-2.449942074068878,3.041387073104475,0.08632132502153222,-383.19422354,-6.842753991785713,NaFe(PO3)3
mp-22517,0.5528999999999993,-1.0730521111533318,4.788988253331062,0.3510106477021715,-216.13732702,-8.312974116153846,EuYSi4N7
mp-17077,6.8081999999999985,-3.772960867222917,3.210605912222768,0.0,-183.89324063,-5.7466637696875,K2YF5
mp-19432,3.2404,-2.41582406905,2.699638963750469,0.0,-133.71113559,-6.685556779500001,KNaV2O6
mp-1019581,4.9224000000000006,-2.240694728705357,2.418193423442326,0.0,-344.97925289999995,-6.1603438017857135,CaS3O10
mp-696794,3.6244,-1.53678033156625,3.214293044216187,0.0,-141.82522563,-5.0651866296428585,RbHSeO4
mp-3718,0.2417999999999996,-2.859294075416668,9.4591836508813,0.0,-46.76141375,-7.793568958333334,ThTeO
mp-765383,,,,,,,
mp-779511,3.5116000000000005,-2.8779889349305554,5.213934806281029,0.030339704583332683,-141.75907037,-5.906627932083333,Ba2MgO3
mp-27346,2.4938,-1.5058633927753844,3.6668156110095738,0.0,-152.03628256,-2.9237746646153844,Al2Hg3Cl8
mp-28567,4.8641000000000005,-2.9505745719044447,5.963331807455464,0.0,-58.361974399999994,-4.863497866666667,LiBiF4
mp-9515,5.543499999999999,-3.2847820389062505,3.868658075975208,0.09984772531247188,-120.84225194,-7.55264074625,Al2SiO5
mp-18684,7.221,-3.1119522760889287,2.5543894187823963,0.002627552499999908,-159.77041528,-4.9928254775,KPF6
mp-766860,,,,,,,
mp-773270,,,,,,,
mp-769726,,,,,,,
mp-19361,2.6812,-2.1439720296691176,2.934742347662969,0.0,-226.18914934,-6.6526220394117646,Cr2(SO4)3
mp-15701,3.4803000000000006,-1.3379387520233328,3.0865179688438906,0.02933402687499953,-56.55397191,-7.06924648875,MgSiN2
mp-559779,2.5583000000000005,-2.1572040043872733,4.210422601980309,0.0,-524.39083609,-5.95898677375,Nd3SiS6Cl
mp-777698,1.4398,-2.45374173675,4.724242366745451,0.07474606400000637,-119.41925229,-7.961283486,V2O3
mp-764701,0.4565000000000001,-2.048016583865617,3.5052023235849887,0.03778708760869432,-142.23670054,-6.184204371304348,Li8Mn5O10
mp-763206,0.8457000000000001,-1.597620073022222,4.5011135622544005,0.6386172634722191,-82.85990036,-4.603327797777777,Co3OF5
mp-556185,3.4609,-2.784696300208333,3.6519824896029696,0.0,-79.26596825,-6.605497354166666,RbNaTiO3
mp-573119,0.3672000000000004,-1.3619190842500004,9.49898855108715,0.060694261875002375,-123.08607107,-6.1543035535,BiRhO3
mp-761551,,,,,,,
mp-776684,4.07,-2.857557960464,2.9512191697583567,0.16695889350000392,-194.24778403,-4.856194600749999,Li3FeF6
mp-850266,,,,,,,
mp-891956,2.3503,-3.027217790762195,3.0119278945753565,0.006355401393729032,-294.65433051,-7.186690988048781,Ca10V6O25
mp-27384,2.438,-0.7243200824166663,5.655834790139999,0.0,-165.72107952,-4.143026988,AgIO3
mp-645135,,,,,,,
mp-567753,1.223,-1.4161115513671874,5.944822637717012,0.0,-128.72848385,-5.363686827083334,La3CuSnSe7
mp-774243,1.3688000000000002,-2.2052320027380956,5.048791748557387,0.08757162249999961,-183.84220479,-6.565793028214286,LiCrSnO4
mp-776523,2.5061,-2.970751568853384,2.828047795497292,0.03565915013157461,-277.58449494,-7.30485513,NaLi3Ti2Al2(PO4)6
mp-13068,4.0808,-4.04076582875,10.392744802936637,0.0924898372499996,-41.98272659,-8.396545318,Lu2O3
mp-763510,,,,,,,
mp-23318,1.9601,-1.061636417128333,5.400460761609627,0.0,-47.1926659,-3.9327221583333336,BiSCl
mp-6127,0.8549000000000002,-3.0222897625000007,3.3559517970620214,0.011137572031250542,-474.10012403,-7.40781443796875,BaCu(Si2O5)2
mp-4428,4.726,-3.4358871700833333,2.965709896210253,0.022929378333333084,-224.03571388,-7.467857129333334,CaSiO3
mp-775327,1.5658000000000003,-2.0530466638534652,3.778628889194178,0.3969013696428636,-384.83099032,-6.87198197,Li2MnV3O8
mp-765463,5.8794,-2.169406271722895,3.3772225595553893,0.012264388486853406,-467.48923669,-6.151174166973684,ErH3(SO4)3
mp-566857,,,,,,,
mp-557171,0.8702000000000003,-2.4709782931202997,2.792400822449438,0.0,-252.54673864,-6.645966806315791,Na2Cu(PO3)4
mp-17539,3.715,-2.604452542358572,3.1140595196348286,0.0,-135.71176323,-4.846848686785714,KAsOF4
mp-770584,,,,,,,
mp-762004,,,,,,,
mp-19514,1.9683,-2.5166548763690484,4.49643471398726,0.2604912748214234,-364.94604789,-6.516893712321428,Sr2CrO4
mp-753315,3.1534000000000004,-2.71363257125,4.29088270244584,0.0328548099999999,-44.7418708,-5.59273385,Mg3ZnO4
mp-989504,2.73,-1.8743460296186671,2.7496662778929344,0.04015850963100087,-39.75260215,-3.975260215,Na2LiNF6
mp-763501,,,,,,,
mp-23227,0.43020000000000014,-0.209617545,4.8653749953161745,0.04055044000000008,-12.3107366,-3.07768415,CuBr
mp-768592,1.8592,-2.460114860471231,3.070562561993437,0.09414453143230704,-155.9009082,-6.495871175,Na2SnBPO7
mp-568231,1.2465000000000002,-1.0598267540977016,3.8038817763981587,0.1436497206666658,-122.1129236,-4.070430786666667,RbMnBr3
mp-31654,,,,,,,
mp-763583,,,,,,,
mp-28345,0.2891999999999997,-0.9535265652631578,5.056100592905752,0.0023979663157893683,-96.91808712,-5.10095195368421,Zr6CI12
mp-863897,,,,,,,
mp-769377,1.8163,-2.036517284355,2.8481418327589685,0.05676658496296661,-188.69982915,-5.241661920833334,SbSO4F3
mp-769383,3.4048,-2.194818482583333,3.6728974098930154,0.09614000875925656,-196.87714863,-6.562571621,RbB3Te2O9
mp-705752,,,,,,,
mp-765444,,,,,,,
mp-780496,1.4092999999999998,-2.229731461911111,4.163740399301124,0.3807802894444423,-97.24978083,-5.402765601666667,Fe3OF5
mp-760491,1.8325,-3.8919417000245113,6.236219668831838,0.05861279992647184,-149.52983499,-8.795872646470588,Ce4Y2O11
mp-779884,2.4118000000000004,-2.842467035719697,6.156716025922633,0.019970927878803838,-312.48475405,-7.1019262284090905,Sr5W3O14
mp-779282,0.5128999999999997,-1.830359275694445,5.6851680121239525,0.06848872888888735,-564.90295647,-5.230582930277778,Li9Bi5O13
mp-27980,2.0472,-3.6936049149760013,5.81534239142198,0.0,-41.09186579,-8.218373158,U(OF)2
mp-561469,1.2026000000000003,-2.1150564830642864,5.599871329083574,0.02778207309523495,-388.89150812,-6.944491216428572,Nd6S4N3Cl
mp-557830,0.91,-1.4599564338815791,7.94660529316567,0.06946473368420936,-199.54380369999998,-5.2511527289473685,Na2Bi5AuO11
mp-567873,1.5901,-1.1441931118154756,4.685834717108105,0.0,-129.23490349,-4.6155322675,RbSmGeSe4
mp-19666,,,,,,,
mp-769384,4.9346,-3.2221189130354553,3.4375017592077484,0.04607085931818045,-256.16139166,-5.8218498104545455,Li3NbOF6
mp-639511,5.6509,-3.2664792564583336,1.5997400640091115,0.011518412708332091,-379.42654979,-7.9047197872916675,SiO2
mp-768878,0.9999999999999998,-1.7564546563888888,5.528130141934243,0.02347612798609422,-264.39074201,-7.344187278055554,CuReO4
mp-565377,,,,,,,
mp-763471,,,,,,,
mp-768292,2.3309,-2.2377188923958333,5.788235716105403,0.09615300229166568,-197.07226297,-6.1585082178125,Li2BiBO4
mp-553374,2.5747,-1.81295192890674,4.496958782815237,0.0,-53.01040722,-4.819127929090909,Cs4Sb2O5
mp-762587,,,,,,,
mp-773392,,,,,,,
mp-505061,,,,,,,
mp-558239,1.517,-3.3571264999519226,6.138319225836653,0.004372333557753905,-879.36315323,-8.455414934903846,Rb4U5O17
mp-9639,0.3563000000000001,-1.7423969447187495,4.289258547531482,0.0,-111.81592543,-5.5907962715,BaCu(SeO3)2
mp-625961,2.0928,-1.058011941716667,3.1406627457139122,0.033750496041665023,-223.57131394,-4.657735707083334,H5IO6
mp-32059,,,,,,,
mp-849235,,,,,,,
mp-559123,4.0729000000000015,-2.9675768703093315,4.066697752794261,0.007911325770844968,-259.02691673,-8.634230557666665,YSiNO2
mp-761352,,,,,,,
mp-978553,0.8919999999999999,-0.07212766124999999,4.061514951760083,0.0,-119.65431807,-4.98559658625,SiAs2
mp-18837,3.6132,-2.580422268166666,3.020058430626332,0.0,-87.00252929999999,-7.250210775,KSc(MoO4)2
mp-29209,0.3967999999999998,-0.6069228633333335,5.700026796442523,0.0,-15.92020974,-3.184041948,Ba(MgBi)2
mp-849260,0.7234000000000003,-0.4161568166894119,4.290851485481103,0.03797002041666353,-140.97217025,-4.146240301470589,ReH8(I3N)2
mp-555485,3.3463,-2.8906444350000013,3.6583283272090816,0.1988232728749919,-598.078869,-7.475985862500001,Rb2GdGa(SiO3)4
mp-769908,,,,,,,
mp-10488,1.6088,-1.3005651866698598,4.178013080013352,0.0,-81.89592369,-4.5497735383333335,Cs2Ti(AgS2)2
mp-27626,1.0131,-0.014142676481481188,5.709109066624907,0.07169490132716128,-225.68928347,-4.17943117537037,Ge19(AsI)4
mp-11706,2.0927,-3.0692044914285708,9.38256553307884,0.0030251810714290173,-95.87108015,-6.847934296428571,Ho2HgO4
mp-674459,6.854,-4.018494157459998,5.563987582138534,0.0,-71.34562657,-5.9454688808333325,NaErF4
mp-557182,,,,,,,
mp-27564,3.6846,-2.4132161729924237,2.478488123523604,0.0,-132.7627571,-6.034670777272726,Na4B2O5
mp-767724,,,,,,,
mp-735520,,,,,,,
mp-32540,,,,,,,
mp-779690,1.9174,-1.2044059863888887,5.772728059498492,0.0862037020833295,-171.61551028,-4.767097507777779,Hg(TeO3)2
mp-510566,1.7775,-1.931486243489584,4.823287388442396,0.0,-140.77657391,-5.865690579583332,La3CuSnS7
mp-721635,,,,,,,
mp-642804,0.3374999999999999,-2.0439109354657146,3.1716155729634283,0.014027654691335378,-103.45141485,-5.747300825,KCu2P2H3(O4F)2
mp-556005,2.0467,-1.1416778996874997,3.995601315240916,0.0018250172321434555,-56.12645017,-3.507903135625,ZnS
mp-567053,,,,,,,
mp-767642,,,,,,,
mp-777240,,,,,,,
mp-559575,1.3837,-1.6184880242712505,3.74115733239548,0.0062864126406947385,-156.21246321,-3.550283254772728,AsSe(IF2)3
mp-23092,2.62,-2.9607845377500004,7.776505790207604,0.00027642399999816547,-74.66397351,-7.466397351,Ba2TaBiO6
mp-753405,0.4592,-2.352341888547333,3.540881993754295,0.01915710850000174,-88.12595747,-4.4062978735,LiCuF3
mp-566331,,,,,,,
mp-3195,0.3131000000000004,-0.7344111183908043,5.323291642604398,0.019562068607080985,-94.86742792,-3.2712906179310344,Sr11(CdSb2)6
mp-7531,3.9435,-3.4467881085326093,2.5189667639772586,0.013481621086997464,-164.94108351,-7.171351456956523,Ca4Al6O13
mp-676274,0.7639000000000005,-0.3548861318164063,8.270047679034851,0.0,-52.03752284,-3.2523451775,Tl9SbSe6
mp-3125,4.0941,-2.8636171193608333,3.4368705675870115,0.0,-50.15737442,-4.179781201666667,K3Zn2F7
mp-989622,1.4274999999999998,-0.8368307009280003,6.937790186716447,0.0,-171.67466947,-8.5837334735,BaWN3
mp-23700,5.3401,-1.997919055436,2.777831582763381,0.0,-92.4632731,-4.623163655,RbH2OF
mp-32105,,,,,,,
mp-565581,,,,,,,
mp-763557,,,,,,,
mp-2402,1.2341000000000002,-0.016207341249999896,1.7520509622128626,0.0,-54.14422674,-3.38401417125,NaSi
mp-676341,0.2493000000000003,-3.5416397757933336,5.077308502067583,0.2028124863888872,-108.62782961,-6.034879422777778,Na2UF6
mp-558637,1.6417999999999997,-1.1372062154166662,6.550947708193469,0.02045187999999776,-195.19085976,-4.879771494,AgTeO3
mp-543056,2.9891000000000005,-2.0678448162881296,3.2994424680498544,0.14874122890244212,-238.76587514,-5.8235579302439024,Mg7As6(HO6)4
mp-771354,,,,,,,
mp-17025,4.4178,-3.3409098005989577,4.026607430920698,0.0024139546874994977,-246.47647274,-7.702389773125,Sr3Y(BO3)3
mp-558703,5.1151,-3.2302258212077777,6.383428503271984,0.006571646018523225,-288.01244991,-5.333563887222222,Al3Pb5F19
mp-756742,4.5901,-3.94628143275,8.626687586604161,0.027502412350013827,-164.49046906,-8.224523453,Lu3AlO6
mp-971837,0.7726000000000002,-0.4655118525000002,5.469284982038296,0.0029945637500001787,-20.62862531,-2.57857816375,ZnCdTe2
mp-690702,3.4112,-2.181370306027347,3.805429582935489,0.0,-179.59028608,-6.4139387885714285,SnPHO4
mp-763336,0.7573999999999999,-2.0599602763095226,4.070162733345448,0.08076885202381323,-94.77707353,-6.7697909664285705,Li2Cr3CoO8
mp-705551,1.1403999999999996,-1.6801641548387105,5.292031144070829,0.07736670499999931,-206.0601919,-6.6471029645161295,Fe15O16
mp-765717,,,,,,,
mp-554818,3.0687,-1.7891116587899991,4.668274672818301,0.0,-114.23014586,-5.192279357272726,KTe3O6F
mp-13627,1.6995,-3.3023015404166665,6.444412553831207,0.0,-421.74277356,-8.7863077825,Y3ReO8
mp-989643,0.4882,-0.7957060234279993,4.959479796451099,0.0,-79.76054316,-7.976054316,LaCoN3
mp-766931,3.3892,-2.549714864015151,3.1833969224709318,0.11742959628787553,-430.80783080000003,-6.527391375757575,Li2Si2NiO6
mp-20820,3.5995,-1.1645708985844443,4.309476121983956,0.0,-222.29065930000004,-6.174740536111112,Pb(NO3)2
mp-626127,1.6936,-1.181873449122857,1.4216732592681909,0.08080260875,-290.60339967,-5.189346422678572,H7NO6
mp-39684,2.3317,-2.325943733295455,6.569125309266696,0.4711939770454592,-329.24566717,-7.482856072045454,GdTiCdSbO7
mp-754005,3.4604,-2.05280104547619,2.5402362309839908,0.08495286642857103,-102.8054095,-7.3432435357142865,Mg(CO2)2
mp-775507,,,,,,,
mp-554002,4.9968,-2.110593826372857,2.3869127991893437,0.022827897857140126,-81.95187801,-5.853705572142857,Al(HO)3
mp-1017514,4.1935,-1.0844433882733329,3.8723323933272566,0.28282939062499945,-27.263004499999997,-6.815751125,MgSiN2
mp-567437,1.3419,-0.27925541025181777,3.927865151911437,0.0,-154.89316091,-3.5202991115909086,Pd(Se4Cl)2
mp-569522,0.4901,-0.3612902697881774,4.056810432039412,0.0,-195.72780759,-6.524260253,MnP4
mp-540833,1.7420999999999998,-1.6824264457692304,4.5316804219199724,0.2452374357692229,-172.68106654,-6.641579482307693,V2Co3O8
mp-761812,,,,,,,
mp-777911,,,,,,,