id,band_gap,formation_energy_per_atom,density,e_above_hull,energy,energy_per_atom,pretty_formula
mp-3034,0,-0.18081254,3.553151699,0,-27.8461675,-3.480770938,MgAl2Cu
mp-769922,0.5903,-2.593259279,4.420382582,0.037940794,-110.5564071,-7.896886224,V2SiO4
mp-14215,1.0183,-0.916964491,4.284293154,0,-337.7038293,-4.690330962,Ba4GeP4
mp-486,0.3606,-0.359562185,4.511190732,0.011989203,-35.35306346,-5.892177243,NiP2
mp-561124,3.7087,-2.503041555,5.256368269,0.007480075,-259.7810931,-6.494527327,Ho3Se4O12F
mp-640108,0,-0.467188978,8.200395386,0,-57.02592529,-5.702592529,Ce2InNi2
mp-862791,0,-0.430716537,15.14843689,0.048900033,-20.96648487,-5.241621218,GaCuPt2
mp-694994,1.1317,-0.535780301,1.60498339,0.541965109,-193.5070043,-4.607309626,CoH22N7(ClO2)4
mp-531792,5.5183,-4.142789016,4.767305622,0,-520.7587121,-6.852088316,LuZr3F15
mp-760747,0,-3.369268114,4.306123179,0.019835115,-260.6526496,-8.988022401,Ti11O18
mp-541911,2.2439,-2.194034904,7.138254811,0,-51.48531137,-8.580885228,HfNCl
mp-28853,1.8007,-2.332686997,8.212663249,0,-130.1715749,-6.508578744,LaAuO3
mp-560358,4.1026,-3.32081186,3.597097884,0,-218.245847,-8.39407104,Zr2P2O9
mp-7086,0,-0.648180908,4.116805815,0,-38.09617159,-4.762021449,RbFeSe2
mp-11287,0,-0.450237012,9.287407726,0,-3.96038673,-1.32012891,CaHg2
mp-631464,0,0.732803561,5.835644779,0.92130951,-8.69825305,-2.899417683,KBePt
mp-680689,1.8642,-3.309529694,2.312733335,0.245269187,-520.6929726,-8.135827697,SrTi2O5
mp-542550,2.3924,-0.860634803,3.505498101,0,-151.3384989,-4.203847192,Cs2Si2Se5
mp-759534,0.563,-1.963122638,4.353636713,0.098371365,-212.3018158,-5.897272662,LiBi2(SO4)3
mp-973977,0,-2.156794033,6.681845511,0.868627386,-32.05067497,-6.410134994,HoSnO3
mp-6759,4.009,-2.999088971,3.847711306,0,-366.5441738,-7.048926419,BaGa2(SiO4)2
mp-667314,1.2376,-0.935501912,5.856391338,0.048210714,-315.9569349,-6.868629019,Ba9(TaN6)2
mp-675751,3.1558,-3.423075824,5.742674068,0.049173969,-381.3793634,-9.534484084,Zr7N2O11
mp-29696,1.2427,-1.441099586,2.902710166,0.084936242,-76.69034316,-4.26057462,K4Sb2O3
mp-975814,0,0.862836805,8.539259772,0.862836805,-32.37541862,-8.093854655,Mo3H
mp-15182,4.2865,-0.28705639,2.339243147,0.102981193,-237.4232176,-7.419475549,Rb2LiCo(CN)6
mp-974525,0,0.894227734,12.47220733,0.894227734,-34.70593397,-4.338241746,ReAg3
mp-4483,0,-0.079411037,6.446553617,0.037321162,-14.77315829,-3.693289573,AgAsSe2
mp-865588,0,-0.316453398,6.952852696,0,-27.56589328,-6.89147332,Y2CuRu
mp-26796,0,-1.791508298,4.125144554,0.022441834,-258.5818323,-6.156710292,Cu5P3O13
mp-7880,0,-0.297162611,5.78601105,0,-19.67784789,-3.935569578,Sr(SiAg)2
mp-768959,2.0394,-1.930503817,2.836395377,0.058872962,-347.441715,-6.434105834,Na4Sb2C4SO16
mp-15408,5.2165,-3.070006043,3.32668036,0,-225.9459181,-4.707206627,KGaF4
mp-608594,0,-2.188251303,7.467589444,0.089163933,-92.53499713,-7.711249761,CrWO4
mp-867848,0,-0.339657674,6.195302031,0,-9.7190259,-2.429756475,LaMgCd2
mp-1020125,4.5985,-3.245153368,3.006138627,0.009522511,-574.9546326,-7.186932908,MgSiO3
mp-568744,0,-0.468682211,8.067030166,0,-52.80902004,-2.933834447,Ba2Cd3Bi4
mp-1112,0,-0.248868883,9.70104584,0,-41.80183712,-6.966972853,CeCo2
mp-1019557,4.6759,-2.172820365,2.818835574,0,-219.6728637,-6.102023992,BaS4O13
mp-23558,0.4142,-0.936802627,8.217745179,0,-111.4226137,-4.642608903,Ag2BiO3
mp-28294,3.5093,-2.68416866,4.02664928,0,-502.8591436,-4.656103181,Sb11F43
mp-980038,0,0.653686931,12.69612956,0.653686931,-27.50423781,-3.438029726,Tl3Ru
mp-22953,0,-0.532942082,10.45746322,0,-22.25040262,-3.708400437,YbCuBi
mp-11172,0,-2.232768896,4.792676844,0,-37.15725151,-4.644656439,LiIrF6
mp-971678,2.3343,-1.70168248,4.987901641,0,-61.14974466,-5.095812055,Na3Ni2SbO6
mp-17495,0.1105,-2.894344132,3.170696573,0.037773893,-324.6237612,-7.377812755,RbTiP2O7
mp-762344,0.2512,-2.495994789,4.15425637,0,-375.6691601,-6.956836298,Na8Nb5O14
mp-770538,0.7684,-2.431014692,3.644385532,0.005339989,-243.7871442,-7.618348257,Mn2PO5
mp-780287,0,-2.609292597,2.897835467,0.089269871,-208.964122,-6.965470732,Li3Mn2(SiO4)2
mp-1604,0,-0.849312372,11.85587665,0,-82.04266814,-5.860190581,Pt3O4
mp-761324,0.3386,-2.178310066,4.089045678,0.047294018,-86.20275505,-6.157339646,LiSiNiO4
mp-18803,4.7521,-2.222908993,4.882344408,0,-87.50290578,-6.250207556,Na2WO4
mp-731,0,-0.113463377,5.062612595,0.043089027,-11.14109768,-1.39263721,Mg3Hg
mp-21710,0,-0.726675652,7.927164342,0,-144.944275,-4.026229862,CaGeAu
mp-3827,0,-1.082315005,2.681377186,0.002580371,-41.65652457,-5.207065571,KFeS2
mp-13937,0,-3.015326895,6.973206482,0.088211238,-75.95118871,-7.595118871,Sr2TbReO6
mp-206,0,-0.674454088,7.284425293,0,-89.6178153,-5.601113456,Tb5Si3
mp-756014,3.0638,-3.230872983,6.551650525,0.063443752,-157.1013928,-7.1409724,Ba4HfO6
mp-568509,0,-0.578002028,8.820769507,0,-35.0344632,-7.00689264,Er(CoB)2
mp-7909,1.6184,-0.464607041,4.750713085,0,-24.23285052,-3.461835789,Al2CdTe4
mp-21401,0,-0.924938335,9.421617836,0,-66.35927636,-5.529939697,TbSnPd
mp-757479,2.2921,-2.507842805,2.778936774,0.083130948,-184.071338,-6.817456964,Li2Sn(PO3)6
mp-15794,1.5373,-1.703303857,4.504591825,0,-22.16757105,-5.541892763,LiYSe2
mp-973278,0,0.106723116,2.137075519,0.106723116,-5.73560194,-1.433900485,KSr3
mp-558115,5.6221,-3.280832068,1.700326294,0.008318948,-948.8257501,-7.90688125,SiO2
mp-560845,1.4091,-0.556237369,3.802114461,0.029439688,-91.61904029,-4.164501831,Cu2As4S3Cl2
mp-1502,0,-0.894872577,7.870069113,0,-16.23765299,-5.412550997,Al2Pt
mp-673706,0,-0.734401322,5.982446555,0.003521942,-225.2399621,-6.435427489,Li7(Mo3Se4)4
mp-550514,0.6714,-2.236490346,9.057114745,0,-96.19171994,-9.619171994,LaTaN2O
mp-15293,0,-0.698719312,7.823329333,0,-38.18841953,-6.364736588,TmTiGe
mp-27403,0.261,-3.757925066,6.076856107,0,-372.87676,-6.658513572,LiUF5
mp-1018735,0,-1.707042,5.441120257,0,-41.48319905,-6.913866508,BaTi2As2O
mp-865364,0,-0.36910948,12.89998553,0,-36.4693772,-9.1173443,DyTaRu2
mp-13938,0,-3.029403251,7.072592916,0.080110563,-76.06993148,-7.606993148,Sr2DyReO6
mp-18710,1.0496,-1.127206722,6.114792229,0,-97.56404481,-4.43472931,RbSm2Ag3Se5
mp-867213,0,-0.607706736,13.08641341,0,-27.96048221,-6.990120553,Er2OsPd
mp-631573,0,0.893882574,16.24263433,1.04443308,-28.07530515,-7.018826288,Re2AuSe
mp-542188,0,-1.050533057,5.282967046,0.068889473,-210.2911821,-7.51039936,Cr(MoS2)2
mp-26248,0,-2.474810488,2.804186876,0.052857604,-186.9685008,-6.232283361,Li4Cu(PO4)2
mp-759341,0.3363,-2.505541567,2.775392371,0.071090885,-385.8522557,-6.652625098,Li4Cu(PO3)6
mp-604,2.6053,-3.035558851,4.92729138,,-117.6985667,-8.407040476,Nb2O5
mp-761126,0.1689,-1.566660053,4.912163808,0.091882309,-92.76029132,-4.216376878,Cu4OF6
mp-849335,1.6489,-2.667974611,3.880058307,0.029371815,-147.2387378,-9.202421112,Ti3N2O3
mp-1019087,0,-0.448487212,7.190231548,0.06976322,-15.32168865,-2.553614775,CaSnHg
mp-22397,0,-0.662085264,8.738676186,0,-35.85305254,-7.170610508,Nd(GeRu)2
mp-9852,0.1508,-0.519391548,4.493813883,0.014994035,-69.2869986,-5.77391655,TmP5
mp-3507,0,-0.89758376,8.736858493,0,-30.22070585,-6.04414117,Lu(SiPd)2
mp-257,0,-0.450417637,8.63526063,0,-8.25813751,-4.129068755,DyIn
mp-27801,1.5639,-0.451243085,6.610092642,0.031728441,-20.07742713,-2.509678391,TlAgI2
mp-703461,5.6079,-1.646291006,2.514537382,0.015334166,-355.3141519,-4.934918776,GeH8N2OF6
mp-755210,1.5767,-3.116391638,5.581589005,0.103395064,-104.1661188,-8.012778367,Y4Cu2O7
mp-867701,0,-1.28305621,2.284627573,0.090192107,-43.51842062,-3.956220056,Li6CuS4
mp-531296,1.9832,-0.841664288,5.422136979,0.011208137,-254.2001138,-4.539287746,Ge(PbS2)2
mp-554508,5.065,-3.153527042,2.81884719,0,-330.6840439,-7.515546452,KYP2O7
mp-763535,0.9595,-2.445043799,3.805786661,0.096836605,-203.5459378,-7.269497777,LiP5W3O19
mp-19937,0,-0.153967229,10.66279505,0.03840675,-74.69642926,-9.337053658,NpSi
mp-697677,0,-0.400520391,3.521508938,0,-143.3054148,-3.582635369,CeMg2H7
mp-975958,2.2123,-2.605013814,2.826661943,0.031822574,-94.7204683,-5.262248239,KNaMo(OF2)2
mp-29151,1.9433,-1.292715459,1.783297989,0.005312406,-30.34176106,-3.792720133,Li5NCl2
mp-3698,0,-0.399007352,3.162716619,0,-12.05449576,-4.018165253,SrAlSi
mp-28110,0.547,-0.774215687,4.881466915,0,-24.17219046,-2.68579894,Rb2PtI6
mp-10636,0,-0.666946613,5.635473054,0,-23.87917128,-3.97986188,SrSb2
mp-753546,2.2925,-1.594040455,1.772350312,0.003666507,-135.7160532,-4.52386844,Li8TiS6
mp-865120,2.9573,-3.470509498,6.078218827,0,-40.86755554,-8.173511108,NaPaO3
mp-1018738,0,-0.648208151,6.632749974,0,-41.52261163,-6.920435272,LaAl2BRu2
mp-17803,1.1999,-0.973953393,4.686252728,0,-168.7197732,-4.96234627,Nb2Tl4S11
mp-756875,0,-1.865902822,4.661857977,0.104223448,-93.70867326,-5.856792079,Li4NbCu3O8
mp-13774,4.4775,-3.307934169,4.696615982,0,-619.0801706,-7.37000203,NaNdSiO4
mp-754415,2.5817,-3.766082386,7.477424437,0.004133558,-190.0146917,-8.637031439,Tb3NbO7
mp-8962,1.9672,-2.435740211,4.856736485,0,-25.0691374,-3.581305343,Rb2HgF4
mp-1019089,1.1621,-0.685424208,2.789971132,0,-18.8375673,-3.13959455,KMgAs
mp-20716,2.9091,-1.475700854,6.645458547,0,-54.49744237,-5.449744237,PbSeO3
mp-3546,0,-0.425226258,5.214462099,0,-73.97955496,-5.690734997,Tb(Al2Fe)4
mp-980940,0,0.255721539,4.964113632,1.339473932,-30.62096809,-7.655242023,Ti3N
mp-771185,2.9353,-2.166877302,3.224382331,0,-312.6007964,-5.788903637,K2Ge2O5
mp-866302,4.822,-1.99351123,3.162917657,0,-224.6343737,-6.606893343,BaNaP3H3(NO2)3
mp-561491,5.2115,-3.244293873,2.786453876,0,-137.3498041,-6.867490203,KNaMg2Si4(O5F)2
mp-694979,2.3183,-2.765238443,2.977155268,0.004377673,-271.5733141,-7.146666159,Na2TiFe(PO4)3
mp-560673,6.1559,-3.101878918,4.44309464,0,-211.0752722,-6.596102258,NaPr2S2O8F3
mp-722867,0,-2.762380122,3.51533368,0.046560055,-608.0006809,-7.069775359,Ca3Cu5Si9O26
mp-14972,3.4742,-3.299935886,4.709572363,0,-737.8716523,-7.686163045,Ba3Sc(BO3)3
mp-504593,3.2437,-1.725590688,5.869436067,0.000126548,-182.4803619,-5.702511309,Pb2CCl2O3
mp-559150,3.9694,-2.711115588,2.739424066,0,-195.1533904,-6.295270657,Na9ZrP4ClO16
mp-40830,1.8648,-3.524299231,4.967810331,0.006948254,-404.6129971,-8.092259942,NaSr3LaTi5O15
mp-12781,0,-0.655350031,4.089562013,0,-44.45680004,-5.557100005,ScAl2Ni
mp-680387,0.6184,-3.19874433,3.912202773,0.45955143,-347.4911756,-7.897526718,PrYSi2O7
mp-3727,2.8867,-3.646156193,6.533968561,,-184.6578682,-8.393539465,Nd3NbO7
mp-849430,3.9039,-2.566987669,3.462050453,0.000122914,-385.1049468,-6.876874049,Li8MnFe7(PO4)8
mp-540927,0.6321,-1.659866979,2.591051408,0,-98.32020817,-4.09667534,UPCl10
mp-23418,1.9324,-0.747281066,6.241351478,0,-31.15715567,-2.225511119,Hg3(SCl)2
mp-20002,0,-0.580381208,4.619324544,0.084396732,-36.62729927,-4.578412409,FeAg2SnS4
mp-22220,4.4337,-4.010270578,8.196102996,0.010218143,-168.7322353,-8.436611763,LaLuO3
mp-707182,2.5299,-1.865582753,3.482703518,0,-506.1610306,-6.025726554,UAsH9O10
mp-559427,2.0717,-3.658426308,6.460242023,0,-364.3923744,-8.281644874,BaSr4U3O14
mp-10738,0,-1.348285838,10.38564891,0,-20.22782987,-6.742609957,SmPPt
mp-694970,0,-2.72991775,6.790975319,0.047791461,-279.2356276,-6.980890689,SrLa7Cu4(SnO6)4
mp-531,0,-0.015932801,2.404918756,0.003477501,-259.3076354,-4.801993249,K4Si23
mp-756160,3.3648,-3.873130993,9.089843769,0.035883033,-195.494076,-8.886094363,Er3TaO7
mp-761293,0,-2.744278809,5.459231745,0.091775954,-80.36831184,-8.036831184,ZrCoO3
mp-555609,1.7884,-2.509907301,5.040806976,0,-160.4034965,-5.531155051,Sr9Zn4(CuO7)2
mp-31164,0,-0.273433859,8.605333846,0.002230958,-144.1453171,-7.207265856,Ce7Ru3
mp-18754,0.2497,-2.800504572,5.650403693,0,-91.87567192,-7.656305993,DyCrO4
mp-2676,0,-0.195023215,9.521011795,0.036422077,-39.79905561,-6.633175935,TaBe2
mp-569608,3.0652,-1.117467299,1.814602954,0.001699131,-222.3584963,-4.632468674,BP2N2Cl7
mp-976263,0,0.702447085,2.679887482,0.702447085,-13.02726878,-3.256817195,Li3Nb
mp-7388,2.0495,-2.017884434,5.502714006,0,-44.80306059,-3.733588383,NaAuF4
mp-35264,1.4638,-1.685594404,6.574061454,0.018164725,-78.26139779,-5.590099842,Pr5AgSe8
mp-18203,3.6226,-2.503364878,3.571135109,0,-244.7255198,-6.797931104,KGe2(PO4)3
mp-1018674,0,-0.450205648,6.785452145,0.000641058,-21.9539817,-3.65899695,DyAlZn
mp-558943,2.2758,-2.728262916,5.053455995,0.003001709,-135.524136,-7.529118668,LiUAsO6
mp-3038,1.43,-0.691692501,5.020637223,0,-26.59974196,-3.799963137,Al2HgSe4
mp-5918,0,-0.976186928,11.39762354,0,-70.00250832,-8.75031354,Hf2NiP
mp-976,0,-0.544935117,5.139816881,0.014276208,-175.1922083,-7.963282195,V6Si5
mp-680578,0,-0.89409978,8.234569395,0.046243547,-131.3780266,-5.971728482,Sm4Si3Pd4
mp-698609,0.9673,-2.664797184,5.626201853,0.004896125,-276.8306027,-6.920765066,Sr7PrFe4(MoO6)4
mp-755109,4.5444,-3.936905885,7.14193384,0.097154361,-173.5942814,-8.679714069,YErO3
mp-569103,0,-0.112662043,5.072224068,0.043890362,-33.40406102,-1.391835876,Mg3Hg
mp-581143,0.5223,-1.81245992,3.570195586,0.025847517,-120.1975775,-5.008232395,RuOF4
mp-5392,3.5077,-2.896709829,3.07695994,0.343190992,-183.2664666,-6.545230951,Mg2SiO4
mp-777814,1.3577,-1.884600115,3.939490895,0.074159378,-147.8062242,-4.926874141,Na6Sn2O7
mp-771965,0,-2.144654319,3.432860545,0.082884632,-160.8520809,-6.434083234,Sb2P4H3O16
mp-765917,1.842,-3.019629902,3.337292861,0.082157328,-165.6246549,-6.134246479,LiV2OF5
mp-974030,0,-0.534529095,9.980648455,0,-174.63313,-7.276380418,LaRh3
mp-571641,0,-0.667122716,8.351449257,0,-38.63377772,-4.292641969,PrCdPd
mp-1072,0,-0.314534108,7.734841068,0,-95.62600225,-5.312555681,Nb5Ga13
mp-5478,1.0903,-0.957459441,8.399835106,0,-84.93342263,-5.308338914,TlPd3O4
mp-505693,0,-0.649833428,8.376195398,0,-128.8429864,-6.442149319,Mg2GeB2Rh5
mp-30892,0,-0.906026907,6.29770254,0,-51.47059559,-3.676471114,Ba4Bi3
mp-779592,3.2446,-4.14772429,6.867578687,0.056427943,-128.694187,-10.72451558,GdOF
mp-18974,0,-2.421684145,8.303067405,0,-131.9199383,-6.595996913,HoNiO3
mp-1061,0,-1.02410026,14.6350551,0,-39.93928007,-6.656546678,PrPt2
mp-22508,0,0.001819792,7.697063134,0.001819792,-116.354718,-8.950362921,YMn12
mp-571177,1.2572,-0.286829117,6.947859273,0.009501161,-49.40711781,-1.764539922,Hg3Te2IBr
mp-19421,2.3952,-2.094879409,7.120664962,0,-87.62078842,-7.301732368,FeWO4
mp-33365,0,-2.911128417,7.249006076,0.222936685,-36.19987954,-7.239975908,CeGaO3
mp-628593,0,-0.757357513,7.720398121,0,-95.51526193,-3.67366392,Yb5(InSb3)2
mp-765702,0,-2.230309597,4.438907253,0.07255366,-121.7036244,-6.761312467,Mn6O7F5
mp-560158,4.2648,-2.637742343,2.574159286,2.82E-05,-524.2476832,-6.897995832,Na3Zn(BO2)5
mp-559115,1.4221,-2.396852329,2.759593263,0,-415.2976135,-5.191220169,P2RhClF6
mp-849444,2.8459,-2.684953591,3.68769433,0.086286152,-156.2348743,-7.101585194,Li2Ti2NiO6
mp-8771,0,-0.597563651,8.757489159,0,-73.0308668,-6.639169709,Lu2(NiB2)3
mp-555838,3.6997,-2.523269866,3.634009424,0,-154.6344268,-6.443101116,SnPO3F
mp-6948,2.1325,-1.334518775,2.509714068,0.014896495,-21.35741473,-3.559569122,KNaO
mp-1695,0,-0.25502858,5.032813223,0.045374145,-167.5453278,-8.377266389,Y2C3
mp-616587,4.8466,-2.69140819,2.924198364,0,-260.5009067,-6.512522669,RbPO3
mp-698032,2.519,-0.344918302,2.42433556,0,-159.0139266,-3.613952877,Na3H7Ru
mp-1018013,0,-0.075087894,6.740048414,0.227840687,-24.6247211,-6.156180275,Ti2InNi
mp-567431,3.6359,-2.638076944,4.450447619,0,-51.23138499,-5.123138499,ThCl4
mp-18843,1.4702,-2.524098648,4.618079554,0.003701334,-144.4084589,-6.564020859,Ca3FeRhO6
mp-757590,3.4943,-2.425402331,3.785801598,0.063970052,-361.6851322,-6.458663075,LiSnPO4
mp-766847,0,-2.481913226,5.097429974,0.135647629,-118.0250314,-5.901251569,WOF3
mp-977455,0.9149,-2.862358655,7.823287287,0,-39.31707337,-7.863414674,PaAgO3
mp-1001836,0,-0.13272278,7.715924711,0,-12.45536347,-6.227681735,MnGa
mp-559587,0.7828,-1.330319801,5.369188873,0.029470812,-287.7958694,-5.139211953,CuSb2BrO3
mp-972130,0,0.45184967,10.40090001,0.45184967,-29.86030538,-3.732538173,Tl3Cr
mp-561380,1.155,-1.264687756,6.359497506,0.014377259,-172.4345332,-5.071603919,Ag2Te4O11
mp-558153,3.3536,-3.819510002,4.70600939,0,-827.1612613,-6.564771915,Ba4Nb2(OF4)3
mp-3489,0,-0.62435291,6.562571671,0,-35.65715619,-7.131431238,Nd(FeSi)2
mp-568032,0.8688,-0.571657641,5.141093343,0.0043483,-24.37805216,-3.48257888,Cd(InSe2)2
mp-560161,0.0718,-1.223145186,3.544452127,0.04802215,-82.89193006,-4.605107226,ZnCu3H6(ClO3)2
mp-5868,0,-2.36575079,5.867912167,0.012802695,-81.55811414,-6.796509512,Sr3Ru2O7
mp-28481,2.9099,-0.901044685,2.226855362,0,-198.9142254,-4.736052986,Ti(ClO4)4
mp-667380,3.4487,-1.575017904,2.71679054,0,-1051.36393,-6.41075567,Rb3Nd2(NO3)9
mp-26701,2.4807,-2.53835238,3.508538978,0.035054936,-525.8245031,-6.572806289,Li3Sn2(PO4)3
mp-12923,0,-0.977036,7.936242437,0,-75.55513039,-6.296260866,SrPIr
mp-775679,0.6963,-2.151394564,4.076466954,0.004198264,-391.2227676,-6.986120851,Li2Mn3CrO8
mp-976280,4.935,-1.57333675,2.788735358,0,-13.36732186,-3.341830465,LiBr
mp-21569,0,-0.61637656,11.17050068,0.01187323,-428.570707,-8.928556396,HfReSi2
mp-756347,1.4655,-2.459175033,8.263414267,0,-163.3685156,-7.425841619,Y2Pt2O7
mp-780171,2.8622,-0.970366199,2.745273302,0.003390891,-301.2576485,-4.184134007,HgH10N2Cl4O
mp-5338,3.9132,-1.517029309,4.432244275,0,-200.2137468,-5.005343671,ZnSeO3
mp-3118,2.9128,-2.567351218,4.303758106,0,-117.9748467,-5.898742334,Mg3TeO6
mp-12362,0.7093,-1.024565629,8.503907583,0.004407073,-88.99160843,-4.04507311,AgHg3SbO6
mp-9867,0.0467,-0.436042023,4.77650187,0,-102.2802581,-4.261677421,Ba2Si3Ag
mp-31252,0,-1.112568116,5.283702849,0,-121.20963,-4.661908847,La5(AlBr)4
mp-30495,0,-0.338869451,8.121316645,0,-7.56242617,-2.520808723,SmCd2
mp-1018079,0,-0.090425471,3.742528625,0.388007092,-23.84866309,-5.962165773,CrGaP2
mp-20920,0,-0.425505113,8.244970724,0,-14.58506015,-3.646265038,TbIn3
mp-989585,0,-2.79794458,4.518670354,0,-43.10533296,-4.310533296,Cs2KPbF6
mp-553923,1.0987,-0.968096554,3.196096895,0.013035685,-123.11654,-3.847391876,K2AgSbS4
mp-10862,0,-0.496606989,7.972132134,0.04161867,-46.54020565,-5.171133961,Ho2Ge6Pd
mp-754869,3.8301,-1.534256021,4.057018089,0.025765136,-87.77793435,-4.876551908,Sr(IO3)2
mp-20225,0,-0.353467197,10.81948113,0,-18.45260781,-4.613151953,CePb3
mp-776688,1.2168,-2.439754049,4.199929017,0.097911476,-158.689706,-7.934485299,V2O3
mp-567394,0.2075,-0.581726887,6.593982482,0.055178928,-81.95848571,-6.304498901,Ga(MoSe2)4
mp-4434,5.5982,-3.761882153,7.39314088,0.008993924,-159.4568968,-7.972844842,TbAlO3
mp-680679,0.9267,-1.742248044,5.323649395,0,-101.2125645,-5.326977081,K2Ho4Cu4S9
mp-6384,4.1056,-2.330315919,2.696207294,0,-52.01182223,-5.201182223,RbSO2F
mp-695963,2.5046,-1.453517338,2.581419131,0,-229.2481281,-4.776002669,K2NaH10IO10
mp-773067,3.5103,-3.889650271,8.991904146,0.019363755,-391.7150002,-8.90261364,Er3TaO7
mp-777550,3.6938,-2.897574929,3.288925131,0.028428686,-122.8098145,-5.117075605,LiFeF4
mp-568570,0.6175,-0.953068654,4.280641924,0.003267803,-56.90923396,-2.845461698,CsSnI3
mp-29102,2.2498,-0.828971975,5.717297031,0,-125.6053295,-1.962583274,Hg3TeCl4
mp-684083,0,-2.362196665,2.572815042,0.069126517,-233.2816984,-6.861226424,Sb(PO3)4
mp-19136,2.3655,-2.672292482,4.536903965,0.001328723,-152.6848956,-7.634244781,TbFe3(BO3)4
mp-720430,5.4108,-2.193909714,2.06979031,0.005224167,-253.2639244,-6.331598111,CaB3H7O9
mp-22498,0,0.088583877,6.898917802,0.088583877,-35.25128934,-5.87521489,CrSb2
mp-753090,0.0072,-2.256609897,3.314947797,0.049671404,-93.56217929,-4.252826331,Li2Cu2F7
mp-16626,0,-0.521290665,7.616911976,0,-93.01626715,-4.228012143,SmAl7Au3
mp-568173,0,-0.580345268,4.214319308,0,-78.81176758,-4.925735474,LaMgSi2
mp-18823,1.0329,-1.339812138,2.866536176,0.080144547,-137.2889391,-6.240406322,K2BaCo(NO2)6
mp-5508,0,-0.951059832,9.214106551,0,-33.37212126,-6.674424252,Th(SiPd)2
mp-570718,0,-0.089231578,8.020300264,0,-271.0001441,-7.13158274,Y2Co17
mp-561187,4.3425,-2.793494616,4.823307214,0.014113276,-147.1580825,-7.357904126,NdGa3(BO3)4
mp-547517,0,-1.889149347,4.256554041,0.019901352,-55.85998907,-5.078180825,Sr2Cu3(ClO2)2
mp-23311,1.0458,-2.041475034,5.323818087,0,-196.7308592,-6.557695307,EuBr2
mp-557904,1.555,-1.556469879,3.252909995,0.08126577,-461.4131785,-4.806387276,SbSe2S(NF3)2