id,band_gap,formation_energy_per_atom,density,e_above_hull,energy,energy_per_atom,pretty_formula
mp-1500,2.1641,-2.4102545115625,4.178927381183871,0.0,-10.21246972,-5.10623486,BaS
mp-23398,3.3033,-2.153324544529166,2.2044819304467134,0.0,-134.73255511,-4.2103923471875,BClF6
mp-24333,0.5450999999999997,-1.523978516623636,2.856103456269701,0.02249041868285584,-225.86264611,-5.133241957045454,UH12(ClO2)3
mp-771523,0.42669999999999986,-1.7696624216666663,4.089134952406182,0.5248985723015851,-186.23726648,-6.651330945714285,LiCr2O4
mp-754191,2.0596,-3.638536755803571,4.876729252809184,0.09485502651785893,-245.41535306,-8.764834037857144,La2Ti3O9
mp-29783,5.9612,-0.14711861012476188,0.726941764676987,0.019764546469156485,-516.91394962,-4.615303121607143,B5H9
mp-568954,1.1943000000000001,-1.3097278501171878,6.163731261083366,0.0,-126.41852495,-5.267438539583334,Nd3CuGeSe7
mp-1639,4.4678,-1.3955277003566664,3.45769350674417,0.07732134749999986,-17.42291823,-8.711459115,BN
mp-306,6.3063,-2.8072340834166662,2.3438283950614105,0.0,-120.39584432,-8.026389621333333,B2O3
mp-771680,,,,,,,
mp-604120,4.9267,-1.504484010222619,1.6163198717505196,0.05418768833333587,-271.36259206,-5.653387334583333,PH6NO4
mp-868607,,,,,,,
mp-28952,1.0606,-1.528538476354166,3.8006690987246468,0.0,-69.60673908,-5.80056159,PdSO4
mp-777427,1.0463999999999998,-2.2701618781391795,4.587542295952904,0.05376243967855121,-188.27053759,-6.723947771071429,Li4Mn2V3Sn3O16
mp-30274,4.241,-3.2232911412500003,7.497985501899671,0.0,-39.34728088,-6.557880146666666,AcBrO
mp-766114,,,,,,,
mp-558186,6.7538,-4.3438423646,5.849261338587339,0.0,-358.2507203,-6.397334291071429,RbLu3F10
mp-978284,5.2645,-2.5168511153722855,2.493371000717393,0.0,-196.13559241,-6.537853080333333,Na2P3HO9
mp-868344,,,,,,,
mp-641923,1.4388999999999998,-1.2583631628735634,4.046001450368585,0.0,-26.92992743,-2.992214158888889,Cs2SnBr6
mp-5052,2.4315,-2.6527385357499993,6.0133063844551025,0.03874907400000005,-139.20777882,-6.960388941,TiCdO3
mp-1714,0.6958000000000002,-0.44449473333333245,4.958877478506669,0.0,-165.1965004,-6.883187516666666,FeSi2
mp-763291,0.7906,-2.6098416769377795,4.299880631735613,0.0033563494444557307,-136.67704216,-7.593169008888889,V3O5F
mp-772609,1.5065,-2.8638631651388886,6.352313977209463,0.09293071513888851,-237.576125,-6.599336805555556,La2Zn2O5
mp-755061,3.7126,-1.616537304861111,3.6587336403321618,0.061751728750003565,-77.93681631,-3.24736734625,SrCaI4
mp-1020141,4.4468,-3.1408983219117648,2.5271224450581737,0.04404133481617478,-244.47539159,-7.190452693823529,Na2Al2Si3O10
mp-782650,1.0324,-2.340455447106791,3.066756918692123,0.2346363716818205,-302.72407638,-6.8800926449999995,LiMnP2O7
mp-687227,1.1326999999999998,-1.5505008499665887,8.34864184083194,0.18609318322368384,-220.92727909,-5.8138757655263165,MnSb2Pb5O11
mp-25622,,,,,,,
mp-30253,0.6759,-0.27864439072463776,3.9503678338566073,0.0,-69.12807205,-3.00556835,Na10SrSn12
mp-21922,3.0002,-1.566118250641026,6.5940759581399915,0.0,-427.07965739,-5.4753802229487185,Te3(PbO4)2
mp-5072,2.0173,-1.3109252595,5.169951465385989,0.0,-17.3106544,-3.46213088,Rb2HgO2
mp-37108,2.1031999999999997,-2.45843192202381,5.084379691890093,0.004066358928572988,-84.65350119,-6.046678656428571,Sr(NdS2)2
mp-755231,2.1354999999999995,-1.7598390740833338,4.891948330876224,0.0626037838749971,-106.35366224,-5.317683112,LiTeO3
mp-768305,3.6916,-3.592839534047619,6.382579513126605,0.01861066499999886,-55.46868589,-7.924097984285715,Sr2HfO4
mp-8957,2.5378,-2.3401652687499994,3.9094812387257676,0.0,-130.77807521,-5.944457964090909,Na5TaO5
mp-625415,3.7111,-2.3141090420871424,5.53707916497205,0.018910965714283634,-86.57867157,-6.184190826428571,Tb(HO)3
mp-8762,2.6492,-3.041934897,7.270341423017592,0.012785440166671158,-142.14467715,-7.107233857500001,Er2S2O
mp-778709,,,,,,,
mp-6548,2.0435,-3.443300491088234,4.764175401163952,0.0008599386764718275,-136.77073366,-8.045337274117646,K2La2Ti3O10
mp-868282,,,,,,,
mp-758868,5.3035,-2.124797625409299,2.1772752051589968,0.0057401652205850695,-619.28925462,-6.071463280588235,MgBP(H3O4)2
mp-773442,,,,,,,
mp-770456,2.3823,-2.805344204583334,2.968138081088253,0.019160892666661766,-99.04346415,-6.60289761,Li6Ti2O7
mp-624190,1.7595999999999998,-0.8305172853750008,4.62570520096521,0.0,-91.60662883,-4.5803314415,GePbS3
mp-541459,3.0232,-2.5177747026964283,3.689046896568285,0.0,-415.09203803,-6.48581309421875,KSnPO5
mp-558924,5.218299999999999,-3.0352708448481818,3.416719024230068,0.0,-204.61809049,-4.6504111475,Na5Ga3F14
mp-763848,,,,,,,
mp-753277,1.2161,-2.163070749345,4.633435995084524,0.0513933837499998,-32.46967035,-4.05870879375,LiAgF2
mp-2490,1.5928,-0.4086167242857135,4.006313950355573,0.0,-9.25860923,-4.629304615,GaP
mp-15079,6.0599,-3.1041119952835405,4.203196989249351,0.0,-91.78595264,-4.589297632,Cs4KLiGa2F12
mp-753098,1.8469000000000002,-2.271024322261667,4.061967004258657,0.006264804999999818,-17.93332708,-4.48333177,LiCuF2
mp-766844,,,,,,,
mp-762664,,,,,,,
mp-41191,3.2016,-3.0065738811573803,2.9678929743629974,0.005278814189813019,-128.5488811,-7.141604505555555,Na3Ti2P2O10F
mp-705547,0.8159000000000001,-1.7474844590000003,4.6636332656738,0.15987388374999867,-263.57610225,-6.5894025562500005,Fe2O3
mp-566991,,,,,,,
mp-634381,2.0312,-2.1464552944318185,4.1125659529828384,0.030848205454551803,-70.65030007,-6.422754551818182,V2Zn2O7
mp-619064,1.1002,-2.501636539608147,5.598383343466102,0.11430408088169486,-116.24137351,-7.265085844375,PrMnGeO5
mp-626552,3.8138,-1.4730544900155553,1.695949878763479,0.020793512175926843,-272.12875047,-5.039421305,Ca(H8O5)2
mp-32581,0.8830999999999998,-1.45850631725,6.654090796800055,0.0,-210.27386133,-5.25684653325,Pr2Te3
mp-767974,,,,,,,
mp-735529,3.3208,-1.6122992299229588,2.4936895437530517,0.002182820000000696,-164.68198324,-5.881499401428571,FePH6NO5
mp-780876,2.7067,-2.499344776140001,2.263188248924707,0.10144539235576566,-266.71985223,-5.129227927500001,Li6Fe(OF)3
mp-753662,2.888,-2.286273164488095,2.6545448597686994,0.00759423499999734,-68.31099657,-4.879356897857143,K2Mg2O3
mp-770384,,,,,,,
mp-849987,,,,,,,
mp-540236,,,,,,,
mp-35082,6.0682,-0.44314480405416656,0.7625183252735653,0.0008364106249976189,-75.23088246,-4.70193015375,BH6N
mp-767334,,,,,,,
mp-17709,3.1370999999999998,-2.4985636925,3.2170751866255656,0.004355484999999604,-185.11387474,-5.784808585625,Na2ZnSiO4
mp-691065,1.9675000000000002,-3.34672995623077,5.902842265731749,0.02270665602563504,-625.33339536,-8.017094812307693,K6Ba2CaU6O24
mp-767830,,,,,,,
mp-18610,2.6078,-3.3427902776888025,6.432974781117996,0.0,-248.31860473,-7.7599563978125,Sm2SiSeO4
mp-669498,1.9676,-1.1423004633680003,2.7706905053955304,0.055978188894219905,-364.80570022,-6.080095003666667,K2Pt(NO2)4
mp-13230,6.4632000000000005,-3.611201158447334,2.721976535384685,0.0,-108.86516777,-5.4432583885,K3YF6
mp-10348,4.1081,-3.480994016916667,3.7058407663659523,0.00021913524999916945,-171.21884295,-8.5609421475,LaSc3(BO3)4
mp-30150,4.8964,-0.07368736542333328,1.5918683423043247,0.0,-178.41239672,-3.7169249316666666,GaBH6
mp-769845,,,,,,,
mp-585492,,,,,,,
mp-756469,4.6339999999999995,-4.000744588749999,9.428597519136705,0.07531253262500037,-167.47382684,-8.373691341999999,DyLuO3
mp-3839,0.20330000000000048,-0.28246132874999974,5.73032269801959,0.0,-29.08748753,-3.63593594125,GaCuTe2
mp-850999,0.03270000000000006,-1.6436624636764692,2.458651590408748,0.08100127064705909,-443.05064157,-6.515450611323529,NaCr4O12
mp-773333,,,,,,,
mp-669528,2.0003,-3.014824088928571,5.344725495230856,0.025124044642851118,-208.00914607,-7.428898073928572,Na2UO4
mp-762848,,,,,,,
mp-985592,2.1394,-1.3813405498043412,1.6412406044387986,0.08595150057692269,-53.44305044,-4.11100388,Li6PS5Cl
mp-759933,2.385,-2.4846607629545447,3.4991893623881585,0.09127055454545108,-295.8967327,-6.724925743181817,Li2Sn(BO3)2
mp-753418,3.6062,-3.5565598388095236,5.528955824146434,0.032457422500001165,-106.20869684,-7.586335488571429,SrNd2O4
mp-560993,5.236199999999999,-3.3735806026988637,3.7479599767834753,0.043605353039768424,-331.71044949,-7.538873852045454,CaAl12Si4O27
mp-684679,1.3498,-1.7919283869078944,5.473931723292574,0.023056016842097904,-228.02857591,-6.000751997631579,Sb6O13
mp-1007637,2.5305,-0.2104479563099999,1.3933363841921957,0.05538041500000013,-9.7438871,-2.435971775,KNaH2
mp-777000,,,,,,,
mp-561246,2.7587,-2.8836799510833324,5.951734402071295,0.014170302018516878,-428.91720222,-7.148620037,Al2Si2Pb2O9
mp-764549,,,,,,,
mp-3414,1.7671999999999999,-2.383614870371667,4.572257951083611,0.0,-138.21499363,-4.3192185509375,AgSbF6
mp-34361,0.6400999999999994,-0.30925996124999955,8.582264283200994,0.0,-48.94925762,-3.05932860125,Tl9BiTe6
mp-579304,,,,,,,
mp-1019778,5.5903,-2.755779008900794,2.512494870021235,0.0,-647.43245327,-6.744088054895833,K2Li3B(P2O7)2
mp-777073,,,,,,,
mp-764900,1.3161,-2.853437938591109,4.099652199598266,0.0015036022222219003,-129.76131353,-7.208961862777778,VOF
mp-573321,0.5268000000000002,-0.24545450999999963,5.923699473828194,0.01559431437499903,-24.69924808,-3.08740601,TePdI2
mp-770591,0.8266999999999998,-2.480266917707242,2.7818234257663135,0.051809301805556096,-450.06611875,-6.250918315972222,Li3MnAlO4
mp-738624,5.0600000000000005,-2.1024136489915737,2.843165488378074,0.025382927934773036,-559.03887294,-6.076509488478261,SmP2H9O11
mp-565908,,,,,,,
mp-5840,3.904,-3.3522626085416656,3.337748115591587,0.0,-60.28354666,-7.5354433325,LiScO2
mp-984718,1.1513,-0.010138169166666877,5.097157574771373,0.08926231458333245,-22.71635008,-5.67908752,BAs
mp-18869,0.6534,-1.3794632484073042,3.342314763108478,0.5025956754545424,-113.22605547,-5.146638885000001,Na4Mn2O5
mp-775763,3.0247,-2.4854460012499997,6.639249512458424,0.0783007557499733,-131.18487449,-6.5592437245,AlBiO3
mp-21137,1.4844,-2.5615395278571422,5.824535917558166,0.0,-85.24990718,-6.089279084285714,Ca2PbO4
mp-780824,,,,,,,
mp-10487,0.6292,-0.4191245649999997,3.8884598047087975,0.0,-47.5822623,-2.97389139375,RbSb
mp-765894,2.4829999999999997,-3.030861273775238,2.6589703214340084,0.17379002571428526,-70.74142934,-5.052959238571428,Li5VF8
mp-36248,4.0546,-0.7019603644766667,2.4273308077270856,0.01053764083333597,-26.76010756,-4.460017926666667,H4BrN
mp-866660,1.2085,-0.5617683749923467,3.859409007124222,0.0,-106.52739835,-3.8045499410714285,K3P2AuSe8
mp-562667,2.1603000000000003,-0.46761315424285704,4.211103716293851,0.09005624236904719,-160.56105016,-5.73432322,Ag3N5O6
mp-29549,3.9322,-0.12730315390351657,1.1006008983407451,0.0,-218.59747357,-4.2037975686538465,Si(PH2)4
mp-780409,4.3796,-3.8001869727499997,5.166627137804442,2.800933333269029e-05,-489.79589556,-8.163264926,La4Al2O9
mp-762759,,,,,,,
mp-554681,2.0175,-1.1427305310267855,3.9988986077238784,0.0007723858928576632,-196.50152295,-3.5089557669642857,ZnS
mp-755480,1.2445,-1.1016813039166664,3.021285374049608,0.09392990833333359,-19.2832848,-3.2138808,KRbO
mp-761406,,,,,,,
mp-771828,4.0253,-3.8346948662500013,6.0781542031726365,0.0777741459090926,-392.841107,-8.928206977272728,Dy2Zr2O7
mp-552663,3.4537999999999998,-2.3847251891287886,3.6425284827942197,0.0,-73.51004344,-6.682731221818182,LiScAs2O7
mp-675770,0.20350000000000001,-3.856761406166666,8.575480140095259,0.0,-137.19532543,-9.146355028666667,Nd3U2O10
mp-769949,,,,,,,
mp-565850,,,,,,,
mp-37879,1.5505,-1.6824571324218747,4.476733854861906,0.018766106250000192,-44.19329799,-5.52416224875,LiYSe2
mp-772336,,,,,,,
mp-759185,3.7289000000000003,-2.506662631164021,2.9044743459151343,0.02554911055556186,-247.51795774,-6.875498826111111,LiSb(PO3)4
mp-5189,3.8667000000000002,-2.4498881580555545,3.1513495397848743,0.005157874444438271,-120.25822414,-6.681012452222222,AlAsO4
mp-38950,1.6509,-3.8895691859469705,5.920725042231606,0.0677356507954503,-194.6064939,-8.845749722727273,Ce2Y2O7
mp-540022,0.4949999999999999,-2.1372679965311008,3.2404252091452777,0.3175223908333331,-85.40082407,-7.116735339166667,MnPO4
mp-752501,3.0343000000000004,-2.514181132738095,5.509473279095674,0.04116266523809653,-183.20263877,-6.542951384642857,LiSiBiO4
mp-743594,,,,,,,
mp-778568,,,,,,,
mp-778624,,,,,,,
mp-866661,1.6543,-1.279318808142857,2.840592801820152,0.0,-125.8987641,-4.4963844321428565,K3Dy(AsS4)2
mp-31229,2.2099,-0.49470258573153425,3.1466058270046418,0.0,-430.84027192,-4.895912180909091,Na4(BSe)9
mp-763020,1.9295,-2.5972462987149996,4.139419412454363,0.0533085720833375,-136.6033203,-5.691805012500001,Fe4OF7
mp-566918,,,,,,,
mp-773265,,,,,,,
mp-765518,,,,,,,
mp-27445,1.312,-1.7468288267140004,3.6533773743897333,0.0,-70.44424865,-3.5222124325000004,As(IF2)3
mp-772797,0.5653999999999999,-2.8162116450396826,3.216264659857182,0.008536104884250051,-275.53793034,-7.653831398333334,Ti2Cu(PO4)3
mp-7117,3.0232,-1.0892300215885413,3.3309988297881663,0.0,-68.0129669,-4.25081043125,LiAlSe2
mp-1016827,1.0992999999999995,-2.0577786194166663,4.682288369470697,0.5132166390000004,-29.24029705,-5.848059409999999,MgGeO3
mp-778707,,,,,,,
mp-10164,0.2145999999999999,-0.58613447375,4.881189134512073,0.00627847749999999,-25.94290536,-3.24286317,NaGaTe2
mp-566796,,,,,,,
mp-560853,2.4541,-1.7750130242857145,4.7554836775528635,0.015604186547616195,-157.8159799,-5.6362849964285715,Tb3Si2S8I
mp-557538,3.4168,-3.406418540031015,4.195035820666959,0.0,-372.40772268,-8.09582005826087,Na2Gd2MgSi4(O6F)2
mp-560127,3.1968,-2.9149603665283528,2.9188977451953813,0.0007866683333332958,-88.91919663,-4.939955368333333,K2MnF6
mp-561385,3.4711,-2.3884210932500003,4.63827227379086,0.0,-354.14260867,-5.902376811166667,SrTeO3
mp-753917,4.5549,-3.9699535984895835,6.270802489313819,0.028959947031250266,-151.75458043,-9.484661276875,Y2HfO5
mp-554749,2.2494000000000005,-2.2420872443818687,4.358957131586688,0.01632502923076906,-554.6184684,-7.110493184615384,P3IrO9
mp-14694,0.6038000000000001,-2.6187313762175335,3.4207872586843844,0.012941451590924302,-301.80377819,-6.859176777045454,CaCuP2O7
mp-767272,,,,,,,
mp-6305,2.5389999999999997,-2.4432628215972727,2.6445672652148424,0.1325968660389618,-123.14338599,-5.597426635909091,K3TiO4F3
mp-765000,,,,,,,
mp-778708,,,,,,,
mp-695800,3.8581,-2.1799733275171427,3.019088866508926,0.0,-175.44861566,-6.266021987857143,KScAs2(HO4)2
mp-566832,,,,,,,
mp-769347,5.007499999999999,-2.4068924150416664,2.7920149651371995,0.05983649986955886,-119.36537706,-5.968268853,MgSO3
mp-772835,4.328799999999999,-2.766237194443453,2.9297330311333525,0.03889976697916264,-169.0870028,-7.045291783333333,K2NdPCO7
mp-767870,,,,,,,
mp-7824,1.7026999999999999,-2.7911285897933333,4.3276525502396925,0.0,-48.30878319,-5.367642576666666,K2ReF6
mp-23257,4.6815,-1.9953849319916668,3.546384699030837,0.0,-205.99069326,-3.433178221,IF5
mp-995218,3.3281,-0.5220249633618178,1.4254432792403577,0.23545064636362145,-146.65280256,-6.66603648,H4C5O2
mp-866635,2.1352,-0.6940953769166663,2.6418788793078467,0.011395076150834349,-108.75724832,-4.531552013333333,CuH3NCl
mp-547125,1.3711000000000007,-2.4694604210324993,8.095594844313059,0.0,-50.39939508,-6.299924385,TbBi2ClO4
mp-17761,3.4751,-2.7614694127500004,3.5570289095844654,0.0,-198.96790701,-6.632263567,CaGeO3
mp-10509,4.9695,-3.1768447311829164,4.824328753873405,0.0,-105.23861183,-6.577413239375,BaGaBO3F2
mp-758006,4.1639,-3.4292897503571425,3.0717050670784207,0.05810426500000432,-201.64002501,-7.201429464642857,Ca2SiO4
mp-779729,3.8076,-3.0129876265277775,2.5601997976548385,0.03515136283332687,-267.03907069,-7.417751963611112,Na2Ti2O5
mp-625803,3.8525,-1.4978268693365424,1.9513057833443523,0.0006640644444813049,-272.84649599,-5.052712888703703,Sr(H8O5)2
mp-850237,,,,,,,
mp-777158,,,,,,,
mp-557824,1.3560999999999996,-1.142192674659092,5.880742214028495,0.0,-290.78683329,-6.608791665681818,Rb2(ReS2)3
mp-10293,2.1132,0.08044411333333319,3.74107324942487,0.1468468244444452,-40.26235626,-6.71039271,BaC2
mp-775699,1.1415000000000002,-2.253876466964286,4.172565445583535,0.06685502745534411,-177.08079296,-6.324314034285714,Li6V3Sb3O16
mp-768326,1.1476,-1.9658904525231486,2.9550754389408915,0.06588471126543194,-349.24648169,-6.467527438703704,Na4Sn2C4SO16
mp-777435,,,,,,,
mp-510709,3.8952999999999998,-2.0090962836276676,3.4873707197275823,0.010145256700012872,-459.09191582,-5.73864894775,SrAsH3O5
mp-542954,,,,,,,
mp-761655,,,,,,,
mp-29363,0.8513,-0.4001575499404761,2.9730638790635346,0.0,-307.15534656,-3.19953486,Rb3GaP2
mp-560900,3.0727,-2.2561902143535724,3.5872082243215364,0.015561181122452972,-333.45659371,-5.954582030535714,RbSb2C2O4F5
mp-19336,1.0848999999999998,-2.476204808311516,6.93923638176282,0.30719632675000774,-144.97500286,-7.248750143,Nd2MnCoO6
mp-28541,4.5391,-2.483682955028196,4.5560111837656345,0.0,-263.61920689,-6.937347549736842,Bi2P4O13
mp-28591,0.041200000000000125,-0.35515198244897966,3.1322334170809545,0.0,-18.86515664,-2.6950223771428568,Na4HgP2
mp-7061,0.8621999999999996,-1.9670668628125005,6.627587207048465,0.0,-45.60008959,-5.70001119875,NdZnAsO
mp-12644,2.8518999999999997,-3.5155180007500006,6.994129048507745,0.0,-79.08937004,-7.908937004,Ba2LuNbO6
mp-850761,,,,,,,
mp-767192,3.0537,-2.422143601904762,3.1386795266630187,0.021741434999998255,-248.36860773,-6.8991279925,Sn(PO3)2
mp-756235,3.234,-1.7681356255555556,4.392825399205986,0.0077529587499998165,-40.85609377,-3.4046744808333336,Ba3SrI8
mp-763345,1.1164,-2.4868382657538883,3.3108746396114443,0.23817559874999894,-144.20445017,-6.008518757083333,Li2VO2F
mp-775346,,,,,,,
mp-754154,2.8291,-2.9847412863577585,7.321607032155875,0.0,-51.81621465,-6.47702683125,CsHoO2
mp-27625,1.4182000000000001,-0.09279162071428583,5.1238308931807754,0.03472375373015879,-236.87788867,-4.386627567962963,Ge19(PBr)4
mp-769844,,,,,,,
mp-541338,5.6742,-3.119077473928572,1.4471078463219487,0.011910271666665473,-538.27186092,-7.475998068333333,AlPO4
mp-771855,,,,,,,
mp-6118,0.6000000000000001,-2.6314573184340655,3.4699935210132704,0.0,-352.59537888,-6.7806803630769235,Ca3Cu3(PO4)4
mp-773245,,,,,,,
mp-771199,0.4066000000000001,-2.2845583716666673,3.8546351554902385,0.04177759651042301,-89.31738976,-7.443115813333333,V3FeO8
mp-18220,5.0581000000000005,-3.2194891157142846,2.5636936212394548,0.0,-303.58185014,-7.228139289047618,LiAlSiO4
mp-7769,1.4425,-2.284315551577001,8.9450293349839,0.0,-45.6272285,-9.1254457,Th2SN2
mp-636289,,,,,,,
mp-557290,3.8950000000000005,-2.8528542606944445,2.194194743652373,0.06214407333333316,-241.50097204,-6.7083603344444445,Na2Si2O5
mp-20878,2.1325999999999996,-1.4577886568749996,8.739853188557497,0.018964353281249124,-43.49532933,-5.43691616625,PbO
mp-850157,,,,,,,
mp-752424,3.6342,-2.3287916455681814,4.301241414115257,0.08561204136363543,-94.71963226,-4.30543783,Ba4Br6O
mp-650764,,,,,,,
mp-640040,,,,,,,
mp-24044,4.1372,-1.4744308707590472,2.181847581155558,0.008525185238096533,-100.58719685,-4.789866516666667,CaH12(BrO3)2
mp-766348,3.6308,-1.6598444687500002,3.9645232397174555,0.06106173083333344,-79.89414655,-3.3289227729166666,BaCaI4
mp-769592,2.154,-2.3823823294093405,2.813673275738544,0.006929523525635695,-173.33541886,-6.66674687923077,Na3VPCO7
mp-549475,1.2915999999999999,-2.3543812693749997,8.361980175180088,0.0,-49.86183743,-6.23272967875,TbBi2BrO4
mp-759183,2.2680000000000002,-0.6185352591875557,1.547464361689655,0.0,-283.29401896,-4.721566982666667,K2Mg(H2N)4
mp-770295,,,,,,,
mp-761457,,,,,,,
mp-8958,0.24600000000000002,-1.8636854604312503,4.723931124692098,0.03179518854166474,-66.69148461,-4.168217788125,RbPd2F5
mp-863076,2.3486999999999996,-2.4631953091666667,6.185256178296698,0.06561004166666784,-45.74955515,-7.6249258583333335,NbBiO4
mp-776825,6.1382,-4.328756981039334,2.785140273955009,0.08884482933333437,-407.49840395,-6.791640065833334,BaY3F11
mp-24367,4.1686000000000005,-1.51962013432931,1.866531263689321,0.012163991724132295,-586.60123217,-5.056907173879311,Na2AsH15O11
mp-14285,0.4336000000000002,-0.5329700240476191,5.113650213234497,0.0,-78.13519836,-6.51126653,CoP2
mp-764288,,,,,,,
mp-18164,1.4081000000000001,-2.3204130588221434,6.4942841983412345,0.0,-194.069726,-6.931061642857143,Tb3S3N
mp-1008223,3.158,-1.7673580186718754,2.7501912547446916,0.25802832999999925,-9.03009025,-4.515045125,CaSe