id,band_gap,formation_energy_per_atom,density,e_above_hull,energy,energy_per_atom,pretty_formula
mp-10844,0,-0.218520683,10.61122299,0.07283872,-63.2168768,-5.268073067,Te2Ir
mp-867234,0,-0.463669603,10.3634651,0,-8.69385896,-2.17346474,TbMgHg2
mp-585226,2.4824,-2.542737249,3.036067642,0.032752421,-269.95738,-6.748934501,Li3Fe2(PO4)3
mp-755194,0,-2.570523286,5.56166569,0.016577556,-91.54220328,-8.32201848,Er(ReO4)2
mp-771060,3.9743,-2.198204491,3.029309193,0.012637275,-161.4221585,-6.208544559,Na5LiNi2P2(CO7)2
mp-767,0,-0.574809548,8.142797278,0,-32.29872099,-4.037340124,Yb3Ge5
mp-755840,0,-2.651032214,5.500875427,0.083425866,-147.1428113,-8.174600626,Nb2SbO6
mp-756095,0,-1.094761729,4.440546724,0.061963702,-39.30003293,-4.912504116,NaCu3O4
mp-23949,3.3134,-0.45893162,2.274957471,0.017991999,-15.03269535,-3.00653907,RbCaH3
mp-30021,0,-0.431979207,3.068936723,0,-25.94886935,-2.883207706,K5Sb4
mp-530986,4.5229,-3.153812639,3.423695139,0.10086324,-1135.294749,-7.095592179,MgSiO3
mp-554526,3.1201,-2.930373131,3.391496099,0.001866605,-280.5932378,-7.794256606,KGd(PO3)4
mp-1018089,1.5146,-1.165102619,3.729529628,0.204225672,-14.91453092,-3.72863273,CaZnSe2
mp-764730,1.9903,-2.626375864,3.181774446,0.049936603,-192.9277036,-6.028990739,Li3VO3F
mp-989512,2.8729,-1.563507976,4.596122982,0,-32.55191495,-3.255191495,LiTl2InCl6
mp-770627,0.1892,-2.096804621,4.115101667,0.024224316,-101.402546,-6.337659126,Li2MnFeO4
mp-11006,3.1212,-1.573486582,3.222718898,0,-102.3803061,-5.119015305,BaPS3
mp-30343,0,-0.040346391,9.503016301,0,-11.39926462,-2.849816155,InAg3
mp-556804,5.0686,-3.250448501,3.995057655,0.005007369,-316.9360994,-7.923402484,PrAl3(BO3)4
mp-674513,2.0598,-3.637120238,8.831795177,0.249960269,-190.5300356,-8.660456164,Dy3TaO7
mp-1124,0,-0.123508351,5.108719541,0,-18.08205465,-1.506837888,MgZn2
mp-755380,1.8067,-3.895081786,7.403241619,0.091465505,-93.51034025,-8.500940023,Ce2Dy2O7
mp-28490,1.1627,-0.315974059,6.885110638,0,-52.9193815,-3.779955821,Tl3BSe3
mp-765351,2.9048,-2.350417744,3.472338252,0.097985936,-654.5975358,-6.545975358,Li2Sn4P4O15
mp-557401,1.0357,-1.576840898,4.080404547,0,-103.5720956,-4.315503985,Na6PbO5
mp-569975,0,-0.477365123,8.521674163,0.002883797,-81.05308764,-4.052654382,Yb3CoSn6
mp-771876,1.8688,-1.78935531,2.741982327,0.005469405,-383.6266688,-4.79533336,Li5NiO4
mp-1776,0.7049,-1.60791004,12.015513,0,-32.02207072,-10.67402357,UN2
mp-674940,0,-1.18715451,6.171798794,0.001480369,-121.9280597,-4.35457356,La12Au3I13
mp-23119,0,-1.030473712,4.625411535,0.007248437,-162.6250735,-4.783090397,Cu5Se2(ClO4)2
mp-676814,0,-0.530228642,5.01407114,0.046203899,-122.3290346,-4.893161383,Cr4(Ga2Se5)3
mp-567248,0,-0.426533146,8.171231371,0.083593591,-49.17270179,-4.470245617,Yb4Mn2Sn5
mp-976949,0,-0.240187111,9.86876942,0.003903536,-17.29021324,-4.32255331,Lu3In
mp-11569,0,-0.274560871,11.33356147,0,-12.9154401,-3.228860025,SmTl3
mp-685003,1.5318,-1.854629065,7.39512467,0.023684194,-231.9725835,-5.799314588,Tb2Se3
mp-20800,0,-0.271352569,7.830349633,0,-59.46118536,-4.95509878,ZrIn2
mp-5816,0,-0.445665577,12.15449334,0,-57.06878626,-9.511464377,UBC
mp-11690,0,-0.537903171,6.610578741,0.004801167,-79.27170524,-7.927170524,Tc2P3
mp-4804,2.8137,-2.120410727,4.080757405,0,-106.2209779,-5.311048896,Li4TeO5
mp-771110,2.4972,-2.535098272,3.51658417,0.079583304,-288.9291738,-7.223229345,Li4Mn5P6WO24
mp-2674,0,-1.090514077,13.90214583,0,-43.70516836,-7.284194727,YPt2
mp-558947,5.6491,-3.28058642,1.661650329,0.008564596,-1138.555527,-7.906635603,SiO2
mp-19851,0.9892,-0.697302503,4.728224659,0,-25.87246586,-3.234058233,KInTe2
mp-631384,0,1.532501545,5.95403697,1.5645904,-19.276932,-4.819233,Sr2VW
mp-571166,4.4509,-2.052141318,3.195267453,0.00049026,-22.83349662,-3.80558277,CaBr2
mp-23884,4.1388,-2.245873934,4.006398519,0.004520708,-95.31785025,-5.957365641,SrGe(HO2)2
mp-557664,3.0773,-2.735212613,5.362921384,0,-43.93140115,-4.393140115,Cs2TlBiF6
mp-554435,2.002,-1.827351164,7.037019214,0,-622.3419773,-6.482728931,TcBi3O8
mp-8983,0,-0.943117013,7.677790391,0.036234676,-65.25516759,-5.437930633,CaSiPt
mp-768161,5.7648,-2.529962255,2.504585945,0.092309685,-158.7660978,-7.216640808,LiSiPCO7
mp-20033,0,-0.22558971,12.92844059,0,-26.64880751,-6.662201878,SnIr
mp-16965,0,-0.82600862,10.29531157,0,-104.4629547,-6.52893467,LaTm(Ge2Ir)2
mp-2906,0,-1.013750948,8.183604013,0,-32.02291818,-6.404583636,Ho(NiP)2
mp-29836,5.2294,-2.348471691,2.868581739,0,-79.20217826,-3.960108913,Na3HoCl6
mp-770154,1.0679,-2.578899393,3.407876708,0.060325922,-259.9138563,-7.219829341,Li3V3(BO5)2
mp-14276,1.7787,-2.389558545,6.983560517,0,-194.3572727,-4.858931817,RhPb2F7
mp-557203,3.3637,-3.629281144,5.090275367,0.05475767,-328.4578129,-8.211445323,SrZrO3
mp-6660,3.6487,-2.86785853,4.304459793,0,-79.65583707,-6.637986423,BaNaBO3
mp-765549,2.2671,-2.883826345,2.965932258,0.066129386,-78.90329054,-4.931455659,Li7CoOF7
mp-643738,0.1113,-0.424720062,3.052636488,0,-36.76020171,-4.084466857,Eu(MgH3)2
mp-734771,5.2352,-1.942086281,2.585470942,0.019484978,-403.5271996,-5.934223523,PrP2(HO)7
mp-8073,0,-0.378783269,9.954773001,0,-64.56190181,-5.380158484,AsPd2
mp-558208,2.5491,-1.936071912,4.206276673,0,-255.7830867,-5.81325197,RbInAs2O7
mp-37255,0,-1.662256258,4.628665214,0,-69.19121058,-5.765934215,Na2RuO3
mp-570520,2.5696,-1.316068869,4.987771134,0,-79.50704885,-3.312793702,ZrHg3(SeCl3)2
mp-558759,3.3117,-1.507272556,4.995751465,0.008575642,-257.3816714,-4.437615023,Cd4Te6Cl6O13
mp-2473,0,-0.084741539,10.32804555,0,-141.4277584,-7.071387921,Re3As7
mp-631420,0,0.806139344,11.61569655,1.075505881,-29.09076899,-7.272692248,CaRe2Si
mp-782664,1.8234,-3.00206161,3.982092142,0.093962359,-202.011684,-8.417153502,Ti3MnO8
mp-762163,0,-2.486224493,3.855541865,0.067841375,-83.77102858,-6.980919048,Li3TiMn2O6
mp-10824,0.0066,-0.359065173,5.347893533,0.002415694,-30.9246766,-3.865584575,ZnCu2GeSe4
mp-755998,2.6627,-2.922131914,4.907056321,0.001840121,-155.2076223,-9.700476393,Zr3N2O3
mp-18713,0,-1.832584111,5.500415288,0.010703051,-130.8090745,-5.450378105,Ba2Li(CuO2)3
mp-775440,0.6017,-1.969610153,4.075922539,0.05917576,-366.7487081,-6.549084073,Li2Cr3NiO8
mp-542972,1.4975,-1.190061652,2.654036814,0,-312.205822,-5.575103964,KNb2PS10
mp-1606,0,-0.116145023,15.18308697,0,-17.0088175,-5.669605833,NbAu2
mp-777258,6.2278,-4.208221951,4.492218419,0.072798955,-318.9320068,-6.133307823,Ba3YF9
mp-775786,2.0242,-2.54821302,10.39279832,0.003164379,-422.2470423,-10.55617606,Hf2N2O
mp-863724,0,-0.401351638,12.57783457,0,-17.98717042,-4.496792605,InPd2Au
mp-10942,3.7237,-3.056782175,4.296771719,,-128.3623632,-7.131242401,KNaLaNbO5
mp-17722,3.557,-3.672518685,7.768096556,0,-222.3196459,-9.263318578,PrTaO4
mp-11607,4.0371,-1.212769195,3.411326872,0.09962546,-113.1504492,-8.082174944,Si3N4
mp-559184,3.4836,-2.36772216,5.860534389,0,-319.3623866,-6.387247731,Zn2Si3Pb4SO15
mp-2534,0.1887,-0.355646068,5.053198872,0,-8.38980253,-4.194901265,GaAs
mp-556709,4.004,-3.09480909,3.469620785,0,-525.0799996,-7.292777772,Na2ZrSiO5
mp-22947,1.0776,-1.670515515,3.073018359,0,-37.22227134,-4.135807927,K2ReCl6
mp-773238,0,-1.377905625,4.983559304,0.06942988,-80.14647112,-6.165113163,Mn(CoO2)4
mp-775959,0.037,-3.152755214,6.810313859,0.036189092,-717.7145429,-7.476193155,LiLa7(CuO7)2
mp-972318,0,0.097782223,7.138136599,0.289721784,-39.06838159,-4.883547699,TiSn3
mp-28602,2.0299,-1.702432333,2.139339357,0,-18.00763241,-3.601526482,Na3ClO
mp-2049,0,-0.128188983,8.470043763,0,-61.31355006,-10.21892501,ZrMo2
mp-1380,0,-0.139359754,8.797160754,0,-27.28387722,-3.410484653,Zn3Ru
mp-3163,0.3784,-2.606122656,6.86998406,0,-31.64384996,-6.328769992,BaSnO3
mp-761589,0,-1.659614114,5.1000283,0.0926036,-159.0956262,-6.628984424,NbCo3O8
mp-570666,0,-0.414163447,13.97860706,0,-220.5525594,-9.189689975,Mo3Pt2N
mp-777751,2.4838,-2.767602253,2.732715399,0.032041305,-641.8292553,-7.463130876,Li3Nb3P8O29
mp-510057,1.7665,-3.078786505,6.581335691,0.013184806,-454.115731,-10.32081207,Gd3NbS3O4
mp-18463,3.7028,-2.525436959,3.628279945,0,-169.1314925,-6.040410446,RbZnPO4
mp-978539,0,-0.284253741,10.89997388,0,-28.86358058,-7.215895145,SmTmRu2
mp-2843,3.2925,-2.586639652,4.486183769,0.001868606,-116.8833334,-4.87013889,SnF2
mp-561353,4.2207,-3.744071881,3.363826253,0,-97.69897424,-6.513264949,NaZr2MnF11
mp-17434,6.7047,-3.759985163,3.843341396,0,-176.4785989,-5.514956216,K2SmF5
mp-771073,0.0918,-1.62230229,4.586162779,0.058209188,-167.0207627,-5.965027238,Li4Mn3Co3(CuO8)2
mp-675830,0,-0.423903637,5.179121171,0.077788979,-47.05300273,-4.705300273,FeCu5S4
mp-978542,0,-0.455404094,8.39121592,0,-16.60909335,-4.152273338,SmErIn2
mp-505078,0,-2.591886142,6.815950241,0,-154.816369,-9.106845235,BaNb7O9
mp-779095,0,-2.755115312,3.940735506,0.036653722,-117.120802,-6.506711222,Mn3OF5
mp-2523,0,-0.689932517,19.11851124,0,-35.26198792,-8.81549698,PuPt3
mp-755901,2.6098,-3.688159589,6.941241877,0.017193709,-188.8336966,-8.583349846,Sm3NbO7
mp-30929,1.1261,-1.179918454,7.308125853,0.014643791,-221.7371661,-4.264176271,Hg4As2O7
mp-561090,5.5506,-3.274331103,1.692172773,0.014819913,-805.8387891,-7.900380285,SiO2
mp-996958,0,-0.784309384,4.21696719,0,-35.31695631,-4.414619539,AgHO2
mp-1019593,1.2295,-2.902587542,3.134363049,0,-1021.075769,-7.507910067,Ce(PO3)4
mp-16818,1.4123,-0.843195266,4.675639633,0,-105.2960922,-2.924891449,Rb2Cd3Se4
mp-30533,1.2956,-1.010804978,6.028824239,0,-59.36415519,-4.947012933,KPt2S3
mp-5175,1.9147,-1.998651206,5.442992862,0,-20.53769507,-5.134423768,NaInO2
mp-976236,0,-0.252677357,6.804898218,0.020703151,-9.08530409,-2.271326023,NaCaTl2
mp-555629,3.747,-2.125965047,3.144265009,0,-171.7609224,-3.903657327,SbTe(ClF2)3
mp-783903,0,-1.606795773,4.251738239,0.07485859,-161.8343135,-5.77979691,Li2Fe3NiO8
mp-754406,1.1829,-2.311016627,3.380011881,0.060030072,-97.43765139,-6.089853212,Li2CuPO4
mp-683,0,-0.139246768,6.412060393,0,-151.76007,-7.588003499,Pr2C3
mp-623814,0,-0.62727903,9.963037986,0,-232.7146592,-7.757155305,Hf8FeTe6
mp-16509,0,-0.519538008,5.595708557,0,-56.82753213,-4.735627678,LuAl4Ni
mp-31233,0,-0.881067305,9.714548095,0,-267.0572671,-7.027822817,Ca4P7Ir8
mp-30672,0,-0.319014004,5.416551189,0,-55.99621345,-6.999526681,Ti3Ga
mp-30340,0,-0.356396148,9.741295667,0,-14.40220127,-3.600550318,ErInAg2
mp-13949,1.0269,-0.380059789,5.355214841,0,-22.2061507,-3.172307243,Cd(GaTe2)2
mp-2700,0,-0.381536068,2.362148434,0,-13.99753733,-4.665845777,CaSi2
mp-30818,0,-0.703397235,7.064851764,0,-16.43446632,-4.10861658,Li2AlPt
mp-982261,0,-0.325489179,7.25567933,0.05337381,-23.31387658,-3.885646097,PbSe2
mp-767427,1.4577,-2.362796137,3.227112316,0.057008687,-312.2717449,-7.097085112,LiFe2(BO3)2
mp-2661,0,-0.46931426,3.460421737,0,-16.09599809,-4.023999523,SrSi
mp-976424,0,0.137894712,5.253573856,0.137894712,-16.1361684,-4.0340421,LiLa3
mp-762029,0,-1.852417067,4.635065283,0.023557843,-104.8577592,-3.744919971,LiAg2F4
mp-769494,0.9574,-2.301440358,2.856762986,0.018002448,-328.2440537,-6.564881074,Na5Fe2P2(CO7)2
mp-772216,0,-2.73627315,5.524611799,0.010161681,-409.8343623,-8.909442658,LiNb8O14
mp-560588,2.0801,-1.134702732,3.988336591,0.005600622,-14.01330165,-3.503325413,ZnS
mp-23915,5.0363,-3.299792887,3.249077812,0.015562369,-649.2137131,-7.377428558,Ca2Al3Si3HO13
mp-558548,3.2938,-2.517253046,2.371216604,0,-659.5162155,-7.168654516,Na3B6NO13
mp-761840,3.0516,-3.623870511,4.89028095,0.030504302,-659.8216085,-9.164189007,Zr5Ti7O24
mp-1016902,0,-1.285408665,5.893869379,0.712505583,-24.38851317,-4.877702634,ZnSnO3
mp-780310,0,-1.746771557,4.574379934,0.110843824,-182.976299,-6.099209967,Fe5(O4F)2
mp-11224,0,-0.188302838,2.843616099,0,-170.1347668,-2.835579447,Sr8Al7
mp-755883,4.0169,-3.163297119,6.494887885,0.004060324,-54.09972857,-6.762466071,NaDyO2
mp-10089,0.2616,-1.050000066,5.136328217,3.09E-05,-71.16470754,-3.953594863,Ba5Sb4
mp-6413,5.933,-2.952013268,3.501057073,0.002845811,-264.0116301,-7.333656392,LiDy(PO3)4
mp-30422,0,-0.533402149,5.133405228,0,-53.8865198,-2.69432599,Sr7Au3
mp-1018723,0,-0.109165644,9.272419413,0.050803791,-34.76162321,-5.793603868,HoCo3Cu2
mp-646116,3.8627,-2.169670816,2.602636654,0,-317.0548529,-6.09720871,Na3MgC2BrO6
mp-566717,1.1188,-2.055892784,4.395611456,0.15732705,-395.4327887,-7.061299798,Fe2BO4
mp-675104,5.2611,-2.3491595,2.214812652,0,-41.49728959,-4.149728959,Na3YCl6
mp-560107,2.3354,-1.667246895,2.999989235,0.045924245,-255.1732117,-4.556664495,SbAs3(S2F3)2
mp-762840,2.8049,-2.509546889,2.921551698,0.047449526,-98.86147203,-6.590764802,Li3CrP2HO8
mp-17951,4.6802,-2.821712497,4.628633522,0,-139.149309,-4.092626734,Cs4Zn3F10
mp-558805,3.7653,-2.817268455,3.596223761,0,-325.2122638,-6.775255496,Na3Nd(BO3)2
mp-28881,0.1169,-2.223052782,3.830973188,0,-149.5205532,-4.672517288,Rb2UCl5
mp-20162,0.1071,-0.672957897,5.82204029,0.08939819,-15.20120057,-3.800300143,InAgS2
mp-570711,0,-0.828268634,11.71013964,0,-142.9201392,-3.970003866,YbGeAu
mp-557352,2.7179,-2.019913503,3.422357894,0,-419.4005831,-3.49500486,CaP2Xe5F22
mp-560725,2.0215,-1.13997478,3.995620502,0.000328575,-112.2751187,-3.50859746,ZnS
mp-28800,0.8646,-0.530555273,6.375285049,0,-90.97289176,-3.95534312,K2Bi8Se13
mp-677731,2.251,-2.954857538,3.656023416,0,-288.0885205,-8.002458902,Rb2NaNb6(PO8)3
mp-29082,0.1331,-0.892894996,4.790134449,0,-137.6877561,-6.258534369,Ba5CrN5
mp-1011377,0,-1.420121159,6.201701777,0.209490561,-34.34737106,-5.724561843,CeSe2
mp-975905,0,0.977324762,9.892006811,1.122017885,-30.19678937,-7.549197343,Mo3I
mp-9530,0,-0.277668825,4.539613572,0.002600191,-187.0044175,-8.500200795,Y4C7
mp-22760,0,-0.458256991,7.143075229,0,-34.78186742,-6.956373484,La(MnGe)2
mp-780110,1.3989,-2.512174928,2.951842996,0.03151932,-359.3363958,-6.910315303,LiVP2HO8
mp-31302,4.1731,-1.747691628,2.041828468,0.085158036,-259.6937729,-6.492344323,KCO3
mp-978960,0,0.019510748,7.750628197,0.019510748,-18.5491826,-4.63729565,Sm3Tm
mp-22346,0,-0.637046245,8.211206049,0,-25.0348924,-5.00697848,BaGe3Pt
mp-36305,0,-1.136587656,7.957511073,0.054195289,-82.77306649,-5.912361892,Pr2UTe4
mp-24038,0.5616,-1.673674399,2.173927139,0.007832338,-326.3587139,-5.263850225,K2CuH12(SO7)2
mp-864918,0,-1.066054031,10.50254453,0.138843707,-64.08792432,-10.68132072,NpN2
mp-541753,0,-1.116023737,4.465234542,0,-34.56870854,-3.840967616,Cs2WBr6
mp-6891,4.7627,-1.918655318,2.718846805,0.090291277,-334.1646788,-6.188234793,Sb2RuC6(OF2)6
mp-582924,0,-0.170527723,7.603507825,0.005600648,-250.8065458,-8.648501578,Zr6Fe23
mp-3276,0,-0.520184607,6.421768604,0.034391301,-185.1491618,-8.415870991,Nb4Cr2Si5
mp-27838,0.0067,-0.35802482,3.629908822,0,-18.69109758,-2.336387198,Na3Bi
mp-530303,2.2576,-2.546280885,5.09765813,0.008466112,-339.1623937,-6.056471317,Mg(GaO2)2
mp-834,0,-1.762366021,11.7864358,0,-18.8871081,-9.44355405,ThN
mp-540424,0.2939,-2.464468893,2.458012548,0.058106818,-243.7516694,-7.169166748,Cr(PO3)4
mp-695960,3.2006,-1.591546432,2.854251874,0.003028124,-301.9364429,-4.717756921,NaZn(HO)3
mp-556808,3.3773,-2.90838649,3.355168593,0,-789.2908087,-7.892908087,RbNb(BO3)2
mp-13771,2.3032,-2.436099761,5.496233276,0,-514.8659732,-6.435824665,Sc2Cd3(GeO4)3
mp-34202,0.3312,-0.229948938,7.484253239,0,-18.37347995,-3.67469599,Bi2Te3
mp-625272,2.0603,-1.518505575,3.115791395,0.039604156,-142.7859504,-4.759531681,Zn(HO)2
mp-28714,4.2606,-2.157245322,2.050878374,0,-196.235671,-4.088243145,Dy(AlCl4)3
mp-18794,1.923,-3.458454384,6.644903773,0.018069848,-169.5025193,-8.475125967,Sm2TiMnO6
mp-2760,0,-0.540601148,7.503641673,0,-112.7528156,-10.25025596,Nb6C5
mp-760502,5.3072,-1.674709608,1.729665371,0.012196293,-88.96504073,-4.448252037,LiH2ClO
mp-18334,3.6072,-2.900593276,5.440952958,0,-190.9960929,-6.82128903,NaHoGeO4
mp-22170,1.4436,-1.934807982,4.811013053,0,-91.30459026,-5.072477237,Li4PbO4
mp-11368,0,-0.476613469,8.533405399,0.031441936,-71.48393935,-4.467746209,Er5Ga3
mp-18134,0,-2.810713478,6.64309911,0,-140.4085505,-6.382206843,Sr3YbRhO6
mp-554941,4.7982,-2.91096136,3.965026222,0.005487717,-44.6745586,-4.46745586,KRb2BiF6
mp-976744,0,-0.178314703,8.908435755,0.026025847,-14.12300302,-3.530750755,LiEr2Tl
mp-768512,0,-1.580030825,3.290892476,0.012983168,-384.6773859,-5.657020381,Cu2(SO4)3
mp-560188,1.3967,-1.908624264,5.893406708,0.191127358,-74.73101902,-5.33792993,Ba4NaAuO8
mp-5215,0,-0.742661197,7.648594761,0,-45.5189785,-5.689872313,NdNiGe2
mp-18943,2.3082,-1.805905588,5.835414443,0.081672629,-42.43060575,-5.303825719,BaNiO2
mp-540545,3.4722,-1.304462711,2.645096109,0.014023089,-292.5076936,-4.875128226,MnH8(BrO2)2
mp-15856,0,-0.515960142,10.9636024,0,-38.45153195,-7.69030639,DyRh3C
mp-18549,6.8163,-3.992679417,4.404815133,0.008627474,-215.4267074,-5.523761728,Ba6Mg7F26
mp-5159,0,-0.523887677,7.064716168,0,-15.24300261,-3.810750653,LiGa2Pd
mp-766262,4.7199,-1.183121574,1.476582724,0.003904453,-210.3206929,-5.68434305,H20C3(N2O5)2
mp-1739,0,-0.678929315,11.97041374,0.003308968,-138.1416244,-8.633851523,Hf5Ge3
mp-558083,2.8895,-3.412938038,3.942498551,0,-763.1627625,-8.295247418,BaLi2Ti6O14
mp-20642,0,0.055779149,8.067644113,0.055779149,-113.9509578,-8.765458289,NdMn12
mp-696736,7.0819,-3.485353155,2.727631548,0,-43.4611094,-5.432638675,RbBe2F5
mp-30230,2.4082,-1.315790054,3.058570735,0,-270.2024956,-3.752812439,Rb4SnS4
mp-569213,0,-0.32612311,8.408687012,0.000900822,-201.366837,-4.911386268,Dy4Ni12Sn25
mp-30441,0,-0.205925292,3.338361639,0,-87.54036756,-4.607387766,Be17Nb2
mp-646633,1.7241,-2.437838527,3.616836201,0.007355419,-216.1199713,-7.203999045,V2Ni(PO5)2
mp-2444,0,-0.692656135,10.17538537,0,-11.76291884,-5.88145942,GaRh
mp-582108,0.169,-0.834758769,6.422835569,0,-290.1741878,-3.374118463,Sr21(Cd2Bi9)2
mp-26742,0,-1.868804915,3.881749331,0.029013351,-237.7016556,-6.255306726,Cu4(PO4)3
mp-780292,3.0066,-2.483379166,3.216324533,0.004000286,-343.9006466,-7.164596805,Li8Mn5Fe3(BO3)8
mp-696123,2.0004,-1.260512907,2.092663005,0.03501514,-213.9891155,-4.279782309,Li10Sn(PS6)2
mp-541285,3.6202,-2.486220787,6.409722307,0,-245.7168494,-6.82546804,Th(TeO3)2
mp-29816,0.4018,-0.471851564,8.606011394,0,-67.0925032,-3.35462516,Ag2HgO2
mp-775435,0.2566,-2.62941653,3.168068498,0.059513797,-560.5368733,-7.006710917,Li3MnV(PO4)3
mp-866007,0,-0.20312285,9.539598109,0.034785358,-11.7561686,-2.93904215,DyMgTl2
mp-556340,1.6122,-2.77224237,7.056898667,0.010448198,-176.4970654,-8.824853271,CaTaNO2
mp-558648,4.6094,-1.808691375,1.97237208,0.080669201,-188.6514458,-5.240317939,CSCl(OF)3
mp-735541,4.5458,-1.747478322,2.774036222,0.004838258,-131.5735979,-4.87309622,NiSn2H12(OF)6
mp-1814,0,-0.167247639,7.88992437,0,-17.07144736,-2.845241227,BaAg5
mp-9946,2.0368,-1.139370304,3.995918222,0.000933051,-42.09591581,-3.507992984,ZnS
mp-976075,0,0.044774749,0.970066189,0.056858054,-7.54711375,-1.886778438,Li3Ca
mp-568196,0,-0.79643599,8.001566685,0,-85.3264627,-6.094747336,Er3CoSi3
mp-19096,1.5191,-2.943477824,5.070618652,0,-195.0255928,-6.965199742,Ba2VO4
mp-1001785,0,0.027210924,6.903170457,0.67719515,-16.21771556,-8.10885778,MoP
mp-1014265,0,-1.344705261,6.644609292,0,-58.16326378,-9.693877297,Zr2N
mp-754152,2.4936,-2.777057835,7.187687577,0.046960968,-73.86032767,-7.386032767,YBiO3
mp-696994,4.0781,-2.005732448,2.584864734,0.002045078,-417.2164171,-5.63805969,Zr2H16SN3(O2F3)3
mp-1793,0,-0.502340972,7.205172343,0,-123.1773796,-7.698586224,Zr3Te
mp-771323,2.9789,-3.828435295,7.053011601,0,-385.7932233,-8.768027802,Tm2Ti2O7
mp-764652,1.2226,-2.364458679,3.220286798,0.055346146,-312.3448968,-7.098747654,LiFe2(BO3)2
mp-1477,0.8057,-0.358690784,3.617902198,0,-110.8104027,-4.617100114,BaSi2
mp-33107,1.5317,-1.713446608,2.050622958,0.434181768,-17.71385211,-3.542770422,SF4
mp-777277,0.5236,-1.973754269,4.13827278,0.057543551,-368.9209218,-6.587873604,Li2Cr3CuO8
mp-18636,0,-0.622808366,5.799901831,0,-61.60647027,-3.850404392,Ba3Sn5
mp-568498,2.4855,-0.969289971,4.580516257,0,-95.48614176,-8.680558342,Sm2(CN2)3
mp-10271,0,-0.011143783,8.082785657,0.009143665,-31.88400234,-6.376800468,ZnCo3C
mp-5557,0,-0.575843167,9.01007314,0,-96.88282461,-8.073568718,ThB4Mo
mp-669326,2.3784,-0.59057874,5.059293353,0.001558258,-51.5213015,-1.908196352,CdI2