id,band_gap,formation_energy_per_atom,density,e_above_hull,energy,energy_per_atom,pretty_formula
mp-706912,5.0668,-1.914039643,2.34639829,0.028970088,-137.3373629,-5.722390119,K2HS2NO6
mp-29476,0.5032,-0.13109604,6.193709007,0.035305073,-111.2455742,-3.97305622,Cu3SbSe3
mp-774421,1.699,-2.351833914,3.20810583,0.065935317,-307.5296005,-7.151851175,Li3Fe8(BO3)8
mp-11959,0,-0.659717809,6.918239676,0,-40.01379768,-5.00172471,CaSn2Rh
mp-4081,1.6313,-0.516752853,6.124710654,0,-42.24535442,-5.280669303,TaCu3Se4
mp-773785,2.6294,-1.81236889,3.092241123,0,-139.8213071,-4.99361811,K2TeO4
mp-680114,2.3553,-0.590392567,5.059923325,0.001744432,-62.96433589,-1.908010178,CdI2
mp-13981,4.8212,-2.697299838,2.28968237,0.012592889,-130.7434937,-6.537174687,KPO3
mp-15557,0.572,-0.45019369,3.863184145,0,-35.97054759,-3.597054759,Cs2As3
mp-975579,0,-2.891645907,6.81538933,0.260309368,-35.63207119,-7.126414238,NdBeO3
mp-20977,0,-1.225157053,6.242933397,0.065036508,-104.186953,-5.209347648,CuTeO3
mp-974732,0,0.655603825,2.150484608,0.655603825,-6.89456626,-1.723641565,Rb3Y
mp-558285,1.9028,-1.980192589,7.515729732,0.001980919,-118.0364884,-5.901824421,GaBiO3
mp-19771,0,-0.609258404,8.882516234,0,-31.11721701,-6.223443402,Dy(CoGe)2
mp-12364,0.4241,-0.741757046,5.29995983,0,-68.04925931,-4.253078707,BaCu2SnSe4
mp-570998,0,-0.253077699,1.530903987,0.096463565,-14.11912981,-3.529782453,NaLi2N
mp-772755,0.1598,-2.212283095,2.935566967,0.052088184,-165.6061294,-6.369466517,Li3CuPCO7
mp-6163,5.9678,-3.077080438,4.378037283,0,-90.90791094,-4.545395547,Cs2NaGaF6
mp-569440,0,-0.347605154,9.790897302,0,-14.27780437,-3.569451093,TmInAg2
mp-1401,0,-0.294091247,7.229957404,0,-23.9508987,-3.99181645,ZrZn2
mp-7554,0,-0.405835959,7.619969634,0.062543944,-12.41867052,-3.10466763,LiMgSnAu
mp-555954,1.8455,-1.236725998,4.704334037,0,-115.0097507,-4.107491098,BaSnHgS4
mp-1009218,0,0.503220556,6.911808794,0.580422732,-19.08137553,-9.540687765,MoC
mp-7070,0,-0.385623676,10.1128659,0.000535106,-43.41516725,-8.68303345,Mn3PtN
mp-755947,0,-1.230504433,2.952321498,0.026429329,-90.44364817,-6.029576545,Li3(CrS2)4
mp-978543,0,-0.339151977,10.85091038,0.005523956,-15.37426655,-3.843566638,SmErTl2
mp-775273,0,-2.352899455,3.639535813,0.094009147,-255.3767567,-7.093798798,Cr2Te(PO4)3
mp-706279,2.0109,-2.676574364,2.532806343,0.191758222,-543.5663055,-7.152188231,Li2ZrFe(PO4)3
mp-10778,1.9029,-1.716344121,4.706173891,0,-19.64458923,-4.911147308,RbPrSe2
mp-777457,3.5786,-2.924864857,2.947792593,0.066138338,-285.5922457,-5.099861529,Li2FeF4
mp-582185,0.81,-0.436422911,4.626181147,0,-182.8387741,-3.264978109,Cs12Nb(In2As3)3
mp-8974,3.241,-3.582405879,7.14545238,0.001155758,-119.5517874,-7.47198671,Ba3Dy4O9
mp-14345,4.3393,-2.85746173,4.104587325,0,-150.0679891,-6.821272231,BaZnP2O7
mp-571271,0,-1.109912618,16.57421537,0.058473739,-39.84314785,-6.640524642,TmPt2
mp-572510,1.8096,-1.200527166,3.127503045,0,-349.0507187,-3.635944986,K3AgO2
mp-541152,4.9884,-2.6627481,2.545727396,0.013544267,-114.6102418,-6.741778926,Al2Si2H4O9
mp-555410,2.0646,-1.138248087,4.010380785,0.002055267,-28.05496614,-3.506870768,ZnS
mp-759541,0,-1.534597856,6.468976829,0,-79.85744663,-5.704103331,Ba(PdO2)2
mp-971857,0,1.042755217,6.787981807,1.042755217,-8.87293319,-2.218233298,Zn3C
mp-28562,1.6265,-0.613293841,3.660312186,0,-120.7723872,-3.7741371,RbAsSe2
mp-18921,0.8322,-1.59836731,4.890085123,0,-21.42069549,-5.355173873,NaCoO2
mp-862767,0,-0.315723405,7.165260107,0,-9.32416198,-2.331040495,TbMgCd2
mp-932,0,-0.492961439,6.026909057,0,-17.39638876,-4.34909719,ScGa3
mp-10810,0.2912,-2.858927036,3.669678391,0.004913718,-42.12051802,-5.265064753,TiAgF6
mp-7773,0.4598,-0.485898501,5.67056588,0,-25.08372086,-3.135465108,Na2AsAu
mp-570597,0.3777,-1.300725366,5.186339816,0,-24.01767458,-4.803534916,La2GeI2
mp-985591,2.1315,-1.329903766,1.898767691,0.051204582,-53.09748666,-4.084422051,Li6PS5Br
mp-6000,1.9433,-3.086625615,6.059930466,0.057336365,-133.9386996,-7.878747038,La2Ti3(AgO5)2
mp-867192,0.5282,-0.971355701,6.57276339,0.007256078,-15.1749929,-3.793748225,Sr2AsAu
mp-17133,1.5667,-1.041902846,5.257478128,0,-217.8280068,-6.050777968,Ba3(AlN2)2
mp-11914,0,-2.719568737,7.110689738,0,-145.21918,-7.260959,NaLa2IrO6
mp-628588,0,-1.994409373,5.824998677,0.081835659,-187.2842548,-6.458077752,Fe4Si2Sn7O16
mp-767014,0,-2.156848895,6.731324269,0.023991354,-393.9357115,-6.791995026,Na5(WO3)6
mp-775073,0.4679,-2.141576494,4.647401848,0.018377722,-183.2890746,-6.546038377,Li4Cr3Fe3(SnO8)2
mp-555716,0,-2.631769871,8.327391352,0.043295894,-172.0455394,-7.820251791,Tm2Ru2O7
mp-28424,0,-0.375207215,1.915913383,0,-46.59434167,-3.328167262,K4P3
mp-1009649,0,-1.115282744,7.344737477,0.358657695,-14.96671913,-7.483359565,PrN
mp-556122,5.5242,-3.014020902,3.075878652,0,-522.1416975,-7.251968021,BaCa(PO3)4
mp-695074,4.0625,-3.159169281,2.565324668,0.017945415,-395.7972064,-7.067807258,KNa3Al4(SiO4)4
mp-554199,2.1505,-1.531337059,4.434628792,0,-91.37102767,-5.076168204,RbSnIO6
mp-557450,1.4683,-1.507604851,6.79959094,0.005011081,-121.8340265,-5.076417772,Na2PtO3
mp-998781,0,-0.644030505,8.957413832,0.292857983,-21.88060375,-4.37612075,TlNiO3
mp-4577,0,-0.554079727,6.285155405,0,-135.3255494,-6.151161335,Y3(AlNi3)2
mp-707710,2.267,-1.794498514,2.375476051,0.016581487,-624.6557116,-5.892978411,SrMgUH24C3O23
mp-14125,0,-0.483266341,8.513849679,0,-129.0557064,-4.609132373,Ho2(Ga3Co)3
mp-676296,0,-2.042862039,9.292111575,0.162756809,-87.254904,-6.711915692,U(BiO2)4
mp-30775,0,-0.103499907,3.801693454,0.016351605,-16.60570219,-2.767617032,PrMg2
mp-6376,1.073,-1.155074586,3.163731479,0,-82.97279006,-5.185799379,KV(CuS2)2
mp-600005,5.4398,-3.273602037,1.60836137,0.015548979,-379.1832586,-7.89965122,SiO2
mp-30041,1.3482,-1.090051381,5.074164547,0,-16.20382,-4.050955,RbBiS2
mp-8655,0,-0.798790038,7.646742243,0,-43.60811101,-7.268018502,SmSiRu
mp-985556,0,-0.017810425,8.953761156,0,-80.74334021,-3.364305842,CdNi
mp-8341,2.3243,-2.081849891,4.229167941,0.017236534,-383.0029523,-5.984421129,NaGeSbO5
mp-560826,5.4244,-3.277272652,1.795165044,0.011878364,-284.519586,-7.903321834,SiO2
mp-18880,2.7181,-3.196631713,6.539642075,0.035813292,-96.10013516,-8.008344597,ErVO4
mp-556783,4.5023,-2.182163608,2.20384286,3.15E-05,-344.1966748,-6.374012496,NaLiCO3
mp-600125,0,-0.162436323,10.62059111,0,-21.55441598,-5.388603995,HfInCu2
mp-20210,1.3754,-0.83742143,8.115200652,0.002983878,-43.99751322,-4.399751322,Ag2PbO2
mp-961718,0,-0.441413391,7.07640608,0.443839748,-21.21614719,-7.072049063,TiAsRh
mp-862654,0,-0.635234472,10.98927025,0.05424668,-17.04544133,-4.261360333,LaGaAu2
mp-3648,0,-0.139598652,10.99800113,0.010485334,-10.47696216,-2.61924054,Zn2CuAu
mp-17552,4.7103,-3.44855164,2.822143775,0.020314518,-224.0976944,-7.469923147,CaSiO3
mp-974658,0,0.509943941,2.771984554,0.509943941,-10.274884,-1.2843605,Rb3Ac
mp-12778,0,-0.236019358,14.48659971,0.005300055,-20.76793498,-10.38396749,VOs
mp-697652,5.4201,-2.517984768,3.399588429,0.007439392,-448.2330246,-7.00364101,HfP2H4O9
mp-774393,2.7097,-2.469401469,3.230925476,0.003461543,-256.1086117,-7.114128103,Li2MnFe(BO3)2
mp-863403,0.2513,-2.644867801,3.088084152,0.134656811,-163.0383053,-7.41083206,LiNbP2O7
mp-23164,0.9706,-0.358422735,7.176336654,0.025482082,-80.22840711,-4.011420356,Bi2Se3
mp-776772,0,-2.477645026,4.739202596,0.074473701,-195.322153,-6.975791179,Li4Ti2Cr3Sn3O16
mp-582635,0,-0.029747709,18.35089725,0.045434034,-150.1572113,-10.72551509,U6Co
mp-775116,1.09,-2.537508612,3.531055605,0.032069282,-180.5115378,-7.521314076,MnCr3(PO4)4
mp-555174,0,-2.494316747,6.761147003,0,-224.603399,-7.486779966,BaTcO3
mp-999542,0,0.062202968,8.155963625,0.062202968,-34.28993,-8.5724825,MnFe3
mp-1121,0,-0.2790429,8.904912755,0,-10.69874879,-5.349374395,GaCo
mp-776061,1.0392,-2.855432056,4.02465091,0.03888217,-221.559489,-7.912838891,Li4Ti3Mn3Nb2O16
mp-669542,0,-0.275493209,5.749944704,0,-239.7789844,-4.440351562,Ba4Cu3Ge20
mp-696272,1.5525,-0.967838924,5.260429739,0,-140.7057301,-5.025204647,HgHNO4
mp-569561,3.1084,-1.081995623,2.505712099,0,-108.5423772,-2.713559431,TeCl4
mp-18360,0,-0.707442162,12.58612183,0,-268.8096349,-7.466934303,Ca5P12Ir19
mp-850986,0.2407,-2.315620795,3.683388946,0.104120014,-144.4593116,-5.15926113,Li6Co6O5F11
mp-29374,0.2906,-0.228319971,4.808538784,0,-88.0812307,-3.670051279,KGaSb4
mp-504990,0.0764,-2.38583017,3.38168388,0,-376.7374215,-6.278957024,RbCeH2S2O9
mp-21136,0,-1.237272404,7.721207017,0,-78.94667644,-7.894667644,Ce3Ni2B2N3
mp-9705,2.0441,-1.132121341,4.482258475,0,-92.63688784,-6.61692056,Ba4Na(BN2)3
mp-19228,1.993,-2.41384431,2.664764624,0,-271.7358266,-7.150942805,K2MnV4O12
mp-765681,0,-1.362114052,5.416343786,0.092024646,-130.9778748,-5.45741145,Co2O3F
mp-27772,0.057,-0.512208687,5.598648524,0,-96.25237398,-4.375107908,Nb3I8
mp-647350,3.2284,-2.261458339,3.88198124,0.072794344,-499.7194051,-6.752964933,Rb5HfFe(MoO4)6
mp-29172,4.1353,-2.091774616,2.986297547,0,-78.52229211,-3.926114605,SeF4
mp-11597,0,-0.879239711,14.69355827,0,-34.01030742,-6.802061484,NdBPt3
mp-28151,0,-0.435798089,8.668099323,0.009717678,-204.2518633,-6.382870727,Ho3Ni19B10
mp-754494,2.9074,-2.070449692,4.140180942,0.0446237,-58.97881388,-4.21277242,BaLaBr5
mp-569610,0,0.025231263,5.798238715,0.025231263,-10.07241903,-3.35747301,CoI2
mp-557426,1.3023,-3.42828061,2.973619946,0,-81.16281768,-5.79734412,CaMnF5
mp-27260,5.388,-2.201812339,2.370327141,0,-91.47908471,-3.81162853,CsAlCl4
mp-756793,2.8733,-2.830254543,4.734392031,0.031458169,-150.0331474,-7.896481443,Li2Nb4ZnO12
mp-23737,2.458,-0.340954627,1.693405642,0,-14.1386524,-2.82773048,KMgH3
mp-24182,3.6853,-1.49724005,2.780087747,0,-309.4919695,-4.99180596,Rb2ZnH12(SeO7)2
mp-974322,0,0.01030049,7.392841056,0.052397053,-30.59463671,-3.824329589,Ho3Mg
mp-555618,1.694,-2.947364898,2.973139882,0,-163.3474881,-5.104609002,Na2MnF5
mp-32,0,0,5.04196833,0,-9.24549241,-4.622746205,Ge
mp-22559,0,-0.709718313,9.872078558,0,-47.26303529,-9.452607058,Pu(SiRu)2
mp-18625,1.8858,-0.332064442,3.623696519,0,-120.4545627,-3.764205084,KPSe6
mp-695026,0,-2.74947836,6.647683731,0.072633199,-299.2643977,-6.801463584,NaYb3Ti2(SbO7)2
mp-1762,0,-0.768736708,11.60998594,0,-43.13499432,-7.18916572,ErRh2
mp-20281,0,-1.057427733,11.71403282,0,-88.26748462,-7.355623718,DySiIr
mp-28227,0,-0.309395653,7.96088019,0,-426.4882906,-5.611688034,Ni11As8
mp-684106,3.9954,-2.487153144,3.44436384,0.047048772,-295.193994,-6.708954408,LiSbP2O7
mp-760506,3.9857,-1.432989524,2.788317041,0.065993037,-131.3259018,-7.295883433,PNO
mp-569563,1.0268,-2.274167484,3.555142,0,-294.0688408,-5.251229299,Ba3Zr6BeCl18
mp-7108,0,-1.001758258,11.91852005,0,-32.45126169,-6.490252338,Tm(SiPt)2
mp-772334,1.2482,-1.936812976,4.484070612,0.06256153,-88.91034186,-5.927356124,Li3Fe3TeO8
mp-24719,0,-0.112095719,7.751649716,0,-9.24218458,-4.62109229,NiH
mp-568244,2.3743,-0.812644042,5.252510061,0,-50.06394059,-3.128996287,TlSn2Br5
mp-19373,3.033,-2.42419006,2.822865301,0.020126461,-136.4214955,-6.821074773,LiVO3
mp-23406,2.128,-1.647228595,3.733979422,0,-30.19577222,-3.355085802,Cs2PtCl6
mp-644828,1.3692,-0.938378351,3.895862645,0,-185.0481705,-2.313102132,AuXe2F17
mp-866692,0.3936,-2.11691317,4.377382281,0,-154.6820297,-6.445084569,La3MnAlS7
mp-5182,0,-0.059044068,7.741198893,0,-542.6003963,-7.979417593,Nd2Fe14B
mp-998233,2.3374,-1.166206474,2.814683413,0.028158314,-16.96718984,-3.393437968,InGeCl3
mp-7400,0,-0.18255543,3.137343522,0,-20.5138344,-3.4189724,NaAlGe
mp-38357,4.9991,-3.523392234,6.314294497,0,-256.2077507,-5.337661472,Ba4Bi3F17
mp-541106,0.7515,-0.510685605,4.620526476,0,-114.4986294,-5.204483154,Nb2Se9
mp-756073,3.2844,-2.697076889,3.668409671,0.058658825,-157.7691752,-6.573715635,Rb2ZrO3
mp-20151,0,-0.423065242,5.177407738,0,-29.14765624,-5.829531248,Eu(AlGe)2
mp-976055,0,-0.229664538,2.995153484,0.012765552,-9.39443444,-2.34860861,Li3In
mp-1773,0,-0.429683689,12.48326893,0,-54.17992291,-9.029987152,ReB2
mp-552604,1.3088,-2.465485904,7.314985399,0,-52.14727299,-6.518409124,YBi2ClO4
mp-771162,0,-2.083478495,3.079447998,0.057594109,-158.8708287,-6.11041649,Na3CuSiCO7
mp-6772,5.8263,-3.141812767,2.799996528,0,-379.7430881,-7.302751694,CaBe2(PO4)2
mp-558055,0.4558,-0.842601821,4.103377052,0.055566291,-98.36549926,-4.471159057,In2Cu2SiS6
mp-756769,1.1597,-2.129632327,3.998267715,0,-149.6390288,-6.234959534,Na2TlPCO7
mp-31059,0,-0.385607484,4.638611095,0.009132854,-20.59432985,-4.11886597,Ba(AlGe)2
mp-680146,2.3508,-0.590513452,5.066897925,0.001623547,-108.7634706,-1.908131063,CdI2
mp-557177,5.6317,-2.927037476,2.196273621,0,-543.6300317,-7.550417108,Li2Al(BO2)5
mp-20630,0,-0.131706792,8.645627431,0.002802271,-85.30213031,-6.561702332,Ho(MnSn)6
mp-745,0,0.013803885,5.956306377,0.022714139,-21.15432427,-3.525720712,ThMg2
mp-781602,0,-1.965240757,4.709392255,0.068724322,-166.1980189,-6.924917456,Mn8O13F3
mp-573651,0,-0.273422997,3.927074886,0.008804326,-271.4607155,-2.513525143,Li22Pb5
mp-557082,5.4777,-1.358965753,1.337717359,0.034141983,-177.3934293,-4.927595258,H2O
mp-865656,0,-0.234134772,10.69468687,0,-40.11179108,-10.02794777,TiMn2W
mp-9574,0.9111,-0.165129152,3.615103466,0.04529371,-19.38127142,-3.230211903,NaBeSb
mp-17089,0,-2.851707462,3.625517705,0,-196.3528979,-7.012603495,K3Eu(PO4)2
mp-21067,0,-0.31070042,7.198631946,0,-18.52578161,-4.631445403,ScInCu2
mp-756630,5.723,-3.768668051,7.547275745,0.012788191,-159.5045316,-7.975226582,DyAlO3
mp-767606,4.3794,-2.749785745,3.24665013,0.033459651,-169.3190037,-7.054958486,Na2NdPCO7
mp-774319,1.5557,-2.113508401,4.180086011,0.104098317,-202.379172,-5.952328587,Li10Ti2Fe3Ni3O16
mp-29784,0,-1.110301055,4.651573318,0.020334058,-325.0339666,-7.387135605,K2Mo9S11
mp-759939,0,-1.332457171,6.669478766,0.110514123,-53.58590241,-5.358590241,AgGeO3
mp-775785,1.9855,-2.547224731,10.39935058,0.004152668,-422.2075107,-10.55518777,Hf2N2O
mp-675479,0,-3.972942545,11.10059312,0.00354874,-129.1448963,-10.76207469,PuPaO4
mp-36031,1.2594,-1.607585018,6.066896672,0.014699506,-71.35646701,-5.096890501,Ca(LaTe2)2
mp-2085,0,0.016748637,8.662698412,0.055319856,-37.90684845,-6.317808075,PrCo2
mp-19926,4.1143,-3.294956918,5.3560227,0,-182.1186393,-7.588276637,La2Be2GeO7
mp-18575,3.2258,-2.454938588,5.511284906,,-172.1047438,-6.619413222,Nb2Zn3O8
mp-759790,0,0.063574652,12.43369329,0.063574652,-13.46155366,-0.961539547,Ag2Hg5
mp-27832,2.481,-1.418290222,4.548497094,0,-29.03101364,-3.225668182,Tl2SnCl6
mp-768893,1.7748,-1.950185319,5.365236023,0.052834342,-311.904986,-5.569731893,Mg2(TeO3)3
mp-15819,0,-0.273906498,3.887077641,0,-140.3935561,-5.399752157,Mn3Al9Si
mp-26586,1.7799,-2.501936095,3.326902686,0.036146429,-374.3145325,-6.68418808,Li3Sb2P5O18
mp-770763,3.355,-2.578949404,2.897388177,0.074218615,-199.0178908,-7.107781815,LiMnPO4
mp-11237,0,-0.277786226,6.208560707,0,-9.71678308,-4.85839154,ScAg
mp-760311,1.7525,-1.73076327,3.316429358,0.038288188,-63.08533383,-4.506095274,Na7SbO6
mp-769557,0.5962,-2.595526102,4.127482716,0.082663412,-109.1477088,-7.796264916,LiMnNbO4
mp-865716,5.3972,-2.881966937,4.773053714,0,-25.36488125,-4.227480208,YbCl2
mp-2571,0,-1.00500229,3.520504394,0.055851338,-85.62500785,-4.281250393,Rb2O3
mp-760244,2.9664,-3.338791864,4.11634675,0.01621642,-465.4202888,-7.757004813,Ca4Nb2O9
mp-773187,0.8018,-2.357256358,4.01040401,0.066838731,-200.6789357,-7.167104846,Li4Mn3V5O16
mp-30451,0,-0.520770587,7.0590223,0.028376299,-22.48780465,-3.747967442,SrCuBi
mp-568961,0,-0.542317756,6.638104799,0,-30.85152767,-6.170305534,Ba(FeAs)2
mp-1020030,3.3806,-2.523822855,4.18874039,0.018590258,-261.9931518,-6.549828794,LiAl(GeO3)2
mp-556523,2.1324,-1.923222942,7.518947413,0,-173.6450491,-5.788168304,LaPb6ClO7
mp-541032,0.3403,-0.00957933,5.623785259,0.02832283,-46.87970517,-3.606131167,Te7As5I
mp-557250,1.9524,-0.764596132,4.776762561,0,-108.168177,-4.507007374,HgINO3
mp-770749,2.8859,-2.891867356,2.578516315,0.074700926,-328.9566316,-7.476287082,Li2Ti(BO3)2
mp-767873,0.6064,-2.275081741,5.54375662,0.003838073,-339.9154813,-7.081572527,V9Sb7O32
mp-481,0,-1.051572696,16.23708393,0,-28.70931454,-7.177328635,ScPt3
mp-647520,0,-1.76017633,7.994136714,0.084597996,-129.2089645,-5.873134751,Sb2Pb2O7
mp-19326,0.8977,-1.794933734,4.561681559,0.019023746,-85.26412278,-7.105343565,MnO2
mp-752393,6.0286,-2.783620178,3.10370455,0.077902171,-156.966636,-7.134847092,Be2P2O7
mp-600622,0,-2.388353363,6.281680265,0,-46.40233156,-7.733721927,EuIO
mp-28859,2.1246,-1.103015066,3.481322035,0,-59.87308598,-2.993654299,K2HgS2
mp-675093,2.054,-2.548621212,10.39656058,0.002756187,-422.26337,-10.55658425,Hf2N2O
mp-32308,2.7623,-2.848947149,8.173450767,0,-156.6483725,-8.702687361,Ta2NiO6
mp-560504,3.7737,-2.849140401,3.779505674,0,-285.8271197,-4.763785328,Rb2Sb2OF10
mp-29297,1.174,-1.443191308,5.378413684,0,-47.61414912,-3.401010651,Cd3(ClO)2
mp-9945,0,-0.182023228,7.928553929,0.016344738,-27.88178857,-4.646964762,CoTe2
mp-752785,0,-3.720860656,9.498349426,0.087152315,-228.909556,-9.156382239,Sm4U4O17
mp-753726,0,-3.571612688,7.363082142,0.072762861,-97.79424963,-8.149520803,TbCeO4
mp-22479,0,-1.259000305,7.932520028,0,-230.3431563,-8.226541295,Zr4Pd2O
mp-1019091,0,-1.738930893,6.338559918,0.0253693,-34.24476607,-5.707461012,LaSe2
mp-13240,0,-0.259311466,7.75251761,0,-27.03743327,-4.506238878,ScInCu4
mp-4334,0,-0.603787172,8.382763937,0,-31.20076606,-6.240153212,Sm(CoGe)2
mp-8926,3.4806,-0.966129124,1.729459118,0.003074953,-68.20832733,-5.684027278,Li3BN2
mp-987,0,-0.075409087,8.252026084,0.006500259,-5.52293727,-2.761468635,ZnCu
mp-764046,0.4469,-2.704781197,4.217979882,0.030333746,-132.5628157,-7.36460087,V3(O2F)2
mp-4733,3.117,-3.797152138,6.294393866,0.015777117,-165.4740379,-9.193002108,ThTi2O6
mp-776689,3.8723,-2.888188696,2.535295335,0.082413011,-281.5886906,-5.028369475,Li3Fe2F9
mp-764225,0,-1.580882629,4.520762969,0.060501122,-69.61116199,-5.800930166,LiCo5O5F
mp-620812,0,-0.644376241,7.798042888,0,-140.5806382,-7.02903191,Y2Ge5Ru3
mp-865212,0,-0.010160491,12.87484999,0,-75.72798355,-9.465997944,Fe3Re
mp-676889,0.582,-1.968561091,4.877651531,0.021671606,-267.0262819,-6.209913533,Ba11(Ta3S13)2
mp-560928,1.6859,-2.161610672,3.570453884,0,-505.9488277,-3.952725216,Sb2IBr2F11
mp-510475,0.0865,-2.599992616,5.044060365,0.041218812,-262.6614494,-7.296151371,Y2Cu2O5
mp-504760,0,-0.22444311,4.441532893,0.095857643,-132.4076109,-2.546300209,Li10Pb3
mp-3838,2.8473,-0.815919031,4.144535766,0,-123.905599,-6.195279951,Li5ReN4
mp-24307,3.281,-0.407948955,1.963225771,0.073908355,-134.6898552,-5.856080661,CdH8C4(S2N3)2
mp-18704,6.8735,-3.373236729,3.243641994,0,-143.3108834,-5.118245836,CsLiBeF4
mp-7621,3.1907,-2.180051336,3.043264869,0,-82.90955993,-6.909129994,KTcO4
mp-976017,0,0.335423435,2.351418656,0.335423435,-11.49221855,-2.873054638,Li3Co
mp-767696,2.1276,-1.67549752,2.416946766,0.042252604,-246.7957963,-5.876090387,V2Co(H4O5)2
mp-15501,1.3505,-1.131694564,4.235582382,0,-347.2796708,-4.823328761,Sr4TiAs4
mp-771703,4.1704,-3.701421205,4.993109351,0.042728153,-239.1662779,-7.972209262,LaAlO3
mp-744256,0.6979,-1.692897848,2.418557412,0.005374732,-321.7079087,-5.744784083,MnH5SO7
mp-760172,0,-3.177167921,3.653555182,0.022191592,-445.7123701,-8.103861274,Na7Ti16O32
mp-1016882,0,-1.067773947,9.498402635,0.358640493,-30.14954059,-6.029908118,CdOsO3
mp-15575,3.3261,-2.999357509,7.247323237,0,-558.3666443,-6.979583054,Ho3Ga5O12
mp-567381,0,0.195353532,4.251688976,0.326180168,-76.33423122,-4.770889451,KHgC2
mp-956,0,-0.243758072,16.0393528,0.004626846,-80.56107626,-10.07013453,U3Si
mp-620346,0.5231,-0.980276648,5.10629251,0,-117.3244044,-4.190157299,Ba3InAs3
mp-631405,0,0.416804256,6.946313023,1.59895275,-18.90943703,-6.303145677,ZrTcCl
mp-770381,0.6811,-2.561088611,3.379294754,0.078136703,-259.2726681,-7.202018559,Li3V3(BO5)2
mp-614455,0,-0.20248509,8.506837464,0,-18.587671,-9.2938355,GdCu
mp-765258,1.0421,-2.875030577,2.731887086,0.096504148,-63.85008828,-4.911545252,Li4MnF8
mp-12128,0,-0.225426706,3.350419091,0,-9.07384542,-2.268461355,Li2MgIn
mp-8923,0,-0.669496196,4.629938827,0,-102.8182545,-6.426140905,Sr2LiFe2N3
mp-1013587,0,-0.503572604,4.64195741,0.3719556,-15.36651297,-3.073302594,Sr3Bi2