id,band_gap,formation_energy_per_atom,density,e_above_hull,energy,energy_per_atom,pretty_formula
mp-3676,0,-0.126501401,7.489454908,0,-22.76990989,-3.794984982,MgCu4Sn
mp-1247,0.453,-0.371755505,10.56884302,0,-72.93514338,-6.077928615,Sb2Ir
mp-260,0,-0.527457628,6.22568845,0.009997545,-34.74029142,-8.685072855,CrB
mp-761549,3.3342,-2.583648871,3.244053162,0.069519149,-99.57473794,-7.112481281,LiMnPO4
mp-554889,2.0385,-1.139419117,4.003920017,0.000884237,-168.3860063,-3.508041798,ZnS
mp-29206,0,-0.448299046,5.818607115,0.088234642,-42.26346309,-5.282932886,BaMnSb2
mp-631621,2.4006,-1.905460444,7.052775661,0.030682699,-252.4459589,-6.311148972,VBi(PbO3)2
mp-19909,0,-0.430744534,6.76128186,0.114163226,-36.88320862,-7.376641724,Dy(CrSi)2
mp-617281,0.1772,-0.272941079,5.956751007,0,-89.38106516,-3.192180899,In4Te3
mp-555528,4.9839,-3.453640155,3.29910313,0.001855954,-246.4081794,-7.948650949,Ca2Th(Si2O5)4
mp-1341,0,-0.267281328,10.11971626,0.005701364,-59.32410132,-5.932410132,Te2Rh3
mp-653429,0.9421,-1.936204732,3.947310221,0,-289.5232577,-6.893410898,Mn7FeCl3O10
mp-699437,4.7868,-2.211523619,2.15835172,0.034453441,-190.3898068,-5.949681463,KP(HO2)2
mp-626564,3.7376,-1.464630585,1.665768467,0.03354659,-271.2945182,-5.023972559,Ca(H8O5)2
mp-972658,0,-0.398371139,10.4495031,0.06095154,-18.00456847,-4.501142118,SmBi3
mp-557794,0,-1.781151098,9.279854108,0.000263223,-92.57600571,-4.628800286,Yb3SiO
mp-4355,0,-3.629036951,5.187628791,0.060042093,-180.7557673,-9.037788367,YTiO3
mp-758848,0,-3.393442719,4.387214774,0.028933005,-161.3977272,-8.966540398,Ti5NbO12
mp-20987,0,-0.597840921,6.383477806,0,-54.17252473,-4.514377061,YZnSn
mp-28529,2.2777,-1.208622879,3.53579165,0,-59.16940557,-2.958470279,KInBr3
mp-555717,0.3024,-2.488592704,6.054568265,0,-160.1254109,-6.671892123,K2Nd2IrO7
mp-626271,3.5407,-1.464653049,1.931561534,0.038556237,-270.6592484,-5.012208303,Sr(H8O5)2
mp-1018068,0,-0.251254531,7.289776474,0.075611869,-32.98670089,-8.246675223,CrFe2Si
mp-10893,0,-0.69326411,13.14200419,0.006316844,-27.79406668,-6.94851667,MnAlPt2
mp-31502,0,-0.116580385,7.712588074,0,-27.33664124,-1.708540078,ScCd7
mp-570767,0,-0.340155639,6.008451147,0.000107239,-434.1629709,-7.236049515,PrBC
mp-30354,0,-0.200390476,8.589180726,0,-18.64918373,-3.729836746,ScAg4
mp-780217,1.992,-1.822657454,2.765219416,0.093082276,-112.4653021,-4.686054253,Li7CuO4
mp-776435,1.1275,-3.053002085,6.168317846,0.045007768,-177.9761275,-8.898806377,LaTiNO2
mp-754823,1.4341,-2.759852826,9.90356439,0.098364788,-26.42660205,-6.606650513,ErTlO2
mp-556867,4.4301,-3.164759672,3.288552138,0.009350267,-570.5146847,-7.506772167,K2PrZr(PO4)3
mp-760251,0.5229,-2.36570995,2.644179266,0.03314646,-151.1382195,-6.297425813,Na2CuP2O7
mp-11416,0,-0.165816645,10.06593627,0,-21.61072967,-5.402682418,TaGa3
mp-997003,2.7497,-2.579218986,7.688502191,0.021052897,-53.93983898,-6.742479873,LaAuO2
mp-1018164,0,0.904526951,12.9964067,0.904526951,-13.47324858,-6.73662429,PtC
mp-679987,1.6878,-1.241284523,2.171502669,0,-372.3493204,-4.654366505,NbP2S2Cl5
mp-621930,3.978,-0.462603996,3.058888866,0.008838363,-423.3742387,-7.056237311,Cs2SrN12
mp-864949,0,-0.534908425,9.811161908,0,-29.02342745,-7.255856863,MnGaRh2
mp-10867,0,-1.234162127,7.415911811,0,-38.14820827,-6.358034712,PrPPd
mp-867908,0,-0.679533226,12.17826587,0.037467134,-18.09021263,-4.522553158,LaBiAu2
mp-771996,1.1775,-1.97302627,4.426327701,0.046394552,-363.4771317,-6.490663065,Li3Mg2Fe19O32
mp-779689,3.7337,-0.519317249,0.743952091,0.019073223,-78.99580467,-4.937237792,H3N
mp-675786,0,-0.344499039,5.292572857,0.032259886,-60.11928229,-2.613881839,Cu3(BiI4)4
mp-704981,0,-0.018029924,7.930525079,0.095625662,-331.0076891,-7.881135454,Mn5Ge2
mp-7604,3.5817,-2.804722943,3.08840436,0,-36.66018807,-5.237169724,Mg3NF3
mp-752798,1.8398,-4.238937027,8.98002182,0.005456371,-84.26305536,-9.362561707,CeTh2O6
mp-20606,1.3467,-1.511166748,5.17524057,0.008453807,-198.8760863,-4.971902157,Tb3In5S12
mp-780859,0.9772,-2.818955934,3.231003207,0.03756219,-277.4751935,-7.707644264,Ti3V2Ni(PO4)6
mp-761495,4.5274,-2.474034585,2.781117443,0.066416729,-126.7930186,-6.673316768,Li2Ni(PO3)4
mp-985610,1.6808,-1.48786377,3.494202965,0.133393026,-102.8531864,-6.428324149,NaAg(CO2)2
mp-24452,6.3796,-2.0143513,1.986899912,0.001245096,-188.1496612,-5.879676912,CaP2H6O7
mp-768071,0.3482,-2.176485002,4.200648375,0.059256861,-404.6517287,-7.225923727,Li5Mn17(SiO16)2
mp-10776,1.0116,-0.965175673,3.034925439,0,-46.9291932,-4.266290291,K2Sn(AsS3)2
mp-4875,3.2909,-3.716633936,8.577401706,0,-130.2886601,-10.85738834,GdTaO4
mp-861883,0,-0.309825801,11.23065302,0,-22.45766307,-5.614415768,Ac2CuIr
mp-20083,0,-0.660029889,4.808727606,0.007999686,-71.34894463,-5.945745386,ScCuSi
mp-6442,5.3198,-3.264585604,2.286015983,0,-243.7097321,-7.615929129,LiAl(Si2O5)2
mp-29558,2.3,-1.673912841,7.652897721,0.008883139,-86.49109855,-5.405693659,Bi3ClO4
mp-761825,1.3946,-1.59082853,5.280612894,0.001497713,-93.22363156,-5.483743033,LiSb(TeO4)3
mp-776172,0.3572,-2.069768618,4.636976511,0.076841492,-123.5019365,-6.175096823,AlCuO3
mp-1018100,0.9144,-0.153821757,4.079727573,0.008148903,-16.36618583,-4.091546458,AlSb
mp-11155,0,-0.488435059,5.389811769,0,-32.59621308,-3.621801453,NdMgGa
mp-768572,4.124,-3.532795039,3.3294366,0.083699262,-156.7962705,-7.839813523,YAl3O6
mp-833,0,-0.707146162,7.205482835,0,-28.96003436,-4.826672393,CaPd2
mp-556609,2.2759,-0.877162255,2.615920755,0,-91.23080601,-4.561540301,KSb(PS3)2
mp-764357,1.7873,-3.012442322,3.622509511,0.042456365,-150.6693454,-6.27788939,V2OF5
mp-722397,5.4433,-1.788333355,1.803738561,0.027935184,-288.5759959,-5.549538382,MgP2H12O11
mp-27849,0.5597,-1.50872875,3.939589276,0,-44.00960114,-7.334933523,TiBrN
mp-1019257,0,-0.558113686,7.307240946,0,-21.38837128,-3.564728547,SmZnGa
mp-706235,3.0254,-2.571058378,3.845966423,0,-528.8736425,-6.610920532,NaCa2V3Zn2O12
mp-559549,1.8387,-3.125608263,4.691534169,0.007266411,-385.9963479,-8.391224954,K2LaNb5O15
mp-8860,0.1193,-0.360410685,2.588214466,0.045372261,-10.10468906,-2.526172265,Na3As
mp-1221,0,-0.335495473,6.910349197,0,-66.40468823,-8.300586029,V3Ge
mp-23763,2.319,-1.052500653,2.301546825,0,-71.24785207,-4.191050122,SnH8(NCl3)2
mp-17659,0,-0.011804937,2.220290527,0.032667813,-149.9684611,-2.829593606,Mg23Al30
mp-8566,0,0.002813926,9.909384948,0.002813926,-11.30343859,-2.825859648,Ag
mp-673,0,-0.46505368,10.34571261,0,-35.05947157,-5.843245262,HoNi2
mp-28252,2.5334,-2.019498412,4.275594112,0.0037578,-294.7685203,-4.912808672,Ba5(GaS4)2
mp-693340,4.1775,-2.275138711,2.469530459,0.019008394,-410.1902316,-6.409222369,Al4Zn4P8H13N3O32
mp-759312,5.6661,-2.083483958,1.740242973,0.003697631,-267.9177338,-5.152264112,MgSiH12(OF)6
mp-505546,0,-0.620594402,7.265360218,0,-214.7213224,-8.946721766,GdMnB4
mp-22460,0,-0.256097499,4.924510534,0,-10.34405197,-2.586012993,LiIn
mp-19712,0,-0.468173844,9.270326952,0,-25.43669698,-4.239449497,PrAgPb
mp-559872,5.6041,-3.276351815,2.365425296,0.012799201,-284.4864359,-7.902400998,SiO2
mp-773164,0.9836,-3.200364984,6.637133434,0.025423698,-215.5002979,-9.795468086,Gd2V2O7
mp-30119,3.3566,-2.022904497,4.520524225,0,-161.6916346,-5.052863581,Cs3AsO4
mp-579779,0,-1.023654135,7.064242328,0.017342634,-140.8491696,-5.868715399,Pr2P3Au
mp-952,0,-0.359093693,17.38807637,0,-24.05328194,-8.017760647,MoPt2
mp-17889,5.0468,-2.671141973,2.523031752,0.003539599,-196.2427735,-6.541425783,KNa2(PO3)3
mp-759883,2.9753,-2.22419086,8.562736425,0.020656453,-32.43556568,-5.405927613,BiOF
mp-559135,5.229,-1.933959479,2.161401671,0.004630477,-272.3876753,-5.447753506,Na2MgH8(SO6)2
mp-2572,0,-0.100781754,2.398935796,0,-20.78027417,-1.731689514,SrMg2
mp-773455,2.6054,-2.279228151,3.083579103,0,-284.7239839,-7.118099597,V2SnO7
mp-768400,0,-1.335752933,1.865606212,0.102526486,-129.0928346,-4.303094485,Li8FeS6
mp-601846,0,-0.334778778,9.051875773,0,-37.61893586,-3.41990326,Yb2In8Ir
mp-555980,4.8082,-2.708599903,3.256252343,0,-620.8901253,-6.89877917,Ba2Zn3(PO3)10
mp-3415,0,-0.81138213,8.505243812,0,-34.96842108,-6.993684216,Yb(SiRu)2
mp-28511,0,-1.079302936,6.181763576,0.007251073,-463.3694473,-8.580915691,Zr2P
mp-568802,1.7641,-0.397426046,4.480746262,0.002389109,-81.47884976,-4.073942488,KBi(PSe3)2
mp-570194,5.6037,-0.449477383,1.076707275,0.012051348,-369.7719399,-4.201953862,Ca(BH4)2
mp-975064,0,-0.595657152,10.54680239,0,-189.2398731,-7.884994712,HoReB4
mp-978842,0,-2.200708038,3.480772801,0.456065516,-27.36913392,-5.473826784,SrCaO3
mp-558828,2.3377,-2.899418106,3.645472752,0.000222691,-155.7328181,-7.786640904,K3Nb3(BO6)2
mp-27703,1.9953,-1.502814889,5.104885187,0,-26.23146595,-4.371910992,InBrO
mp-571184,1.6912,-0.620392284,4.667449113,0,-439.3099203,-4.992158185,CuMo3Br7
mp-978282,0,-0.124017915,5.293160406,0.03253449,-5.61276699,-1.403191748,Mg3Hg
mp-3717,0,-0.841570267,11.27384245,0,-37.45306051,-7.490612102,LuBRh3
mp-775437,1.164,-2.596926845,3.224582539,0,-252.9884856,-7.440837811,V3P6WO24
mp-24805,0,-0.638216783,7.115206039,0,-97.53921079,-4.87696054,LaNiSnH2
mp-37829,1.3177,-1.86874658,6.58755448,0,-81.07835425,-5.791311018,La5TlSe8
mp-14482,2.0941,-3.106214563,4.770489909,,-190.4019542,-8.278345833,SrNb6O16
mp-755116,2.0492,-1.540346185,9.35105031,0,-128.2921777,-5.831462623,In2Pt2O7
mp-759767,0.6401,-2.370557878,2.612271348,0.049456958,-373.8487799,-6.67587107,LiCu(PO3)3
mp-776444,3.1523,-3.054551483,2.708075403,0.017651311,-483.0765041,-7.548070376,KLiTi2(PO5)2
mp-977543,0,-0.728751356,9.84525888,0,-28.90826156,-7.22706539,ZrInRh2
mp-4179,0,-3.005036568,5.901097352,0,-83.74902476,-6.979085397,YbPO4
mp-971944,0,-0.012785667,2.340181056,0.070007425,-6.54820091,-1.637050228,SrMg3
mp-979988,0,0.069417301,7.495511997,0.069417301,-15.40021598,-3.850053995,YbSm3
mp-989594,1.0971,-0.198604512,3.792703564,0.071626097,-27.58431537,-2.758431537,Cs2NaGaH6
mp-675199,2.0519,-2.098450163,3.789100318,0.008090056,-42.88944141,-5.361180176,NaPrS2
mp-4612,0,-0.496484125,7.9266071,0,-28.72579874,-7.181449685,TiCo2Ge
mp-675640,0,-1.932744375,5.993212129,0.118231007,-62.34644565,-3.463691425,Hg2AsF6
mp-6592,2.1166,-1.192621518,3.088393279,0.008789224,-367.1521224,-6.11920204,K2Pt(NO2)4
mp-777804,3.4886,-2.845370193,2.797204096,0.080633422,-243.1138017,-5.064870869,LiFeF4
mp-694892,0,-2.9091499,5.99322991,0.006894971,-311.1912922,-7.779782306,CaLa3Mn4O12
mp-9726,7.5245,-3.942448852,3.671388585,0,-139.0017901,-5.791741253,SrBeF4
mp-27456,4.3731,-2.22783229,4.59460531,0,-94.92896071,-3.955373363,BaBr2
mp-752475,2.1167,-2.14294165,3.945212383,0.10639415,-201.3136016,-5.920988284,Rb2Ga2Ge3O10
mp-559405,0,-1.414280779,4.639763241,0,-72.41738877,-6.034782398,RbU2SbS8
mp-571146,2.5129,-0.943074315,4.445907353,0,-38.44612243,-3.203843536,SnICl
mp-979437,0,-0.13237577,10.58559694,0,-37.2112019,-9.302800475,YPaTc2
mp-974467,0,0.808383949,9.603673008,1.136238885,-25.81837254,-6.454593135,Ru3Cl
mp-556890,3.5717,-3.351967737,3.965106954,0,-299.4837388,-5.759302669,BaNaCr2F9
mp-863726,0,-0.747986296,9.167849868,0,-25.00994984,-6.25248746,Pm2PdRh
mp-540169,0,-1.936229552,2.991083503,0.135369636,-149.5030832,-6.500134051,Co3(PO4)4
mp-762863,0.9562,-2.538304452,4.154013523,0.047323119,-102.7087971,-5.706044282,Fe3OF5
mp-3177,0,-0.536104947,7.792053751,0,-24.88969726,-4.977939452,Nd(CuGe)2
mp-20695,0,-0.247688761,7.182073627,0,-29.38517926,-7.346294815,Zr3In
mp-2719,0,-0.600035748,6.741324405,0,-137.2789161,-6.863945803,DyB4
mp-637436,0,-0.289970116,9.620034598,0.022991068,-350.2354661,-4.490198283,Tm10In20Co9
mp-560014,1.7722,-1.831355229,4.950945783,0,-137.3738532,-5.723910548,Pr3CuSnS7
mp-867352,0,-0.085233967,11.86176856,0,-65.48045298,-8.185056623,TcRh3
mp-579560,1.9837,-1.207038602,3.972975261,0,-42.50053605,-3.035752575,Cs3Sb2Br9
mp-542200,0.6419,-0.623638709,4.621825575,0.001524654,-108.9135855,-3.88977091,CdAg4Ge2S7
mp-631398,0,0.457624752,8.719396037,1.147828137,-15.036309,-3.75907725,TeOsCl2
mp-30640,0,-0.028248459,8.462831238,0.017479768,-306.6204041,-8.068958003,Tm2Fe17
mp-560740,1.6741,-2.566908109,5.199049733,0,-212.9757255,-6.655491422,La2SnS3O2
mp-984776,0,0.443230255,6.382624785,0.443230255,-10.2121545,-2.553038625,BeIn3
mp-767692,2.1063,-3.097444662,2.339718499,0.068095218,-95.22690681,-5.290383712,Li2VF6
mp-720912,0,-1.321212278,2.908948737,0.016857899,-172.8612703,-3.928665234,KZnH4Br3O2
mp-12630,2.8707,-1.890419526,3.624468915,0.001744233,-66.68402459,-5.557002049,MgSeO4
mp-772660,1.7965,-2.753376005,5.207383481,0.030373879,-204.6510393,-8.527126638,NbCrO4
mp-978564,0,-0.374702473,9.550081603,0.001910864,-17.41644149,-4.354110373,SmYTl2
mp-18932,3.616,-2.647880814,6.492309736,0,-178.9895953,-7.457899804,LiPr(WO4)2
mp-570325,0,-0.091927178,8.868508485,0.009123469,-27.78790159,-3.473487699,AuSe
mp-768267,1.9695,-3.026627634,7.606358851,0.010193135,-210.8538232,-7.028460773,HoInO3
mp-17287,0,-0.361804649,8.61649391,0,-141.8390898,-5.909962074,TaTe4Ir
mp-893,0,-0.934117217,5.553718456,0,-63.36429424,-7.92053678,ZrSi
mp-19385,0,-3.054320015,4.901044556,0,-251.3797734,-8.379325781,YMnO3
mp-43068,3.3353,-2.927123591,2.76022925,0,-308.0679577,-6.697129515,Na3Al3Si3AgBrO12
mp-559129,3.1147,-1.53084432,2.507800071,0,-707.7811067,-6.319474167,Li3Er(NO3)6
mp-780146,1.3946,-2.360015318,4.226470085,0.073405967,-105.1113228,-5.839517932,Fe3(OF2)2
mp-978825,0,0.351219686,7.238140648,0.351219686,-22.38087244,-5.59521811,Sm3Cr
mp-850397,1.2826,-2.067629048,4.451785561,0.05890405,-299.5718062,-6.512430569,Li4Cr2Fe5O12
mp-19019,2.178,-1.711327135,5.458432062,0.010392905,-76.23844623,-6.353203852,NiMoO4
mp-19983,0,-0.220445757,7.488608727,0.013095363,-33.33430868,-5.555718113,TiCuSn
mp-6813,5.2354,-3.315311409,3.006487576,0,-659.6915857,-7.170560714,KCa10(PO4)7
mp-28574,1.4532,-1.594269778,6.172045717,0,-157.133726,-4.910428937,KPbO2
mp-561455,1.3951,-1.620114655,4.231851239,0,-597.1179841,-4.815467613,Ba8Sb6S17
mp-22125,0,-0.096656526,10.6133933,0.076703711,-36.88961941,-7.377923882,Np(CoGe)2
mp-977164,1.9597,-0.625792009,1.297974311,0.020558849,-36.35440838,-4.544301048,Li3H3N2
mp-1018136,0,-1.050459034,10.65576542,0,-18.03304247,-6.011014157,LaBiPt
mp-8880,1.9714,-0.606043489,2.306796516,0.004218133,-20.73996901,-5.184992253,AlP
mp-675822,2.1885,-2.189651704,6.77551025,0.048529101,-248.5023951,-6.061034027,Dy14(PbS8)3
mp-744713,2.2696,-1.940389678,2.976441535,0.010092812,-675.0283992,-6.027039278,NaFe3P2(H4O7)2
mp-989527,2.8096,-1.856611004,4.200713442,0.066312447,-38.17106466,-3.817106466,Cs2NaNF6
mp-35651,0,-1.686630736,7.669144966,0.051244714,-93.82198417,-6.701570298,La2USe4
mp-1018087,0,-0.631527362,10.65835612,0,-20.94199917,-5.235499793,CeAu
mp-16164,5.1097,-3.742217052,5.7616485,0,-549.5787005,-8.082039713,Dy3Si3O10F
mp-1237,0,-0.25484386,10.43620591,0.038087099,-42.60684043,-7.101140072,UGe2
mp-775262,0.786,-2.349494216,4.255688425,0.114368326,-172.9993282,-5.766644274,Fe5O3F7
mp-11643,1.791,-0.724540507,3.194871175,0,-87.1030687,-3.959230395,K2Mg(PSe3)2
mp-18915,2.4574,-2.40838343,3.64273935,0.029208089,-185.2724244,-6.616872301,LiCoPO4
mp-29901,1.4415,-0.683079809,4.890189036,0,-93.97858722,-2.610516312,Rb2Cd3Te4
mp-769472,0,-1.788593308,2.689915435,0.044069051,-199.1759862,-4.742285386,Li11(NiO4)2
mp-764745,1.8524,-2.575002964,4.121034574,0.048676179,-135.9552503,-5.664802098,Fe4OF7
mp-556356,4.7045,-3.315295247,2.805925993,0,-396.3803051,-7.340376019,Na2SrAl4(SiO4)4
mp-23958,5.368,-1.646925498,2.030977354,0,-221.3932582,-5.03166496,YH12(ClO2)3
mp-568333,1.1709,-1.183144206,3.552157029,0.014178265,-26.65245262,-2.961383624,K2SnBr6
mp-27318,0.0562,-2.345883725,3.471291652,0,-175.2648572,-4.17297279,Sb3(BrF8)2
mp-4840,0.0424,-0.479401468,5.349924884,0,-32.05313123,-4.006641404,GaCuSe2
mp-745180,3.0894,-1.676393318,2.29436728,0.025251713,-170.514697,-5.683823232,CrH6SO7
mp-20947,0,-2.244631806,5.350314039,0,-140.6828741,-7.034143704,CaRuO3
mp-18065,7.003,-4.122478952,3.954238917,0,-235.3745284,-5.88436321,BaCaAlF7
mp-9200,0.5646,-0.899288933,3.644827324,0,-15.32748445,-3.06549689,K3AuO
mp-555435,1.6238,-0.294183947,2.246515358,0.16685174,-178.7347655,-4.468369138,S4IN3Cl2
mp-761087,0,-2.765245265,3.986429111,0.042738747,-114.9973613,-7.18733508,NaTiO2
mp-7881,0,-0.30834812,6.121213914,0,-14.30075508,-2.860151016,Sr(CdGe)2
mp-753673,2.3145,-2.151311268,8.376864542,0.093536045,-127.9931525,-5.333048022,BiOF
mp-510219,0,-0.146288545,9.31636874,0.053137423,-35.44735929,-5.907893215,Sn2Ru
mp-1018751,0,-2.218345034,4.951348746,0.095348696,-37.02092741,-6.170154568,LaS2
mp-604273,0.6106,-1.692403995,2.955813399,0.02620374,-328.5756292,-5.665097055,Cu2GeP2(H5O7)2
mp-631368,0,0.844213864,13.43304252,1.041551246,-28.60918978,-7.152297445,SiSbOs2
mp-862941,0,-0.594748047,8.334882237,0,-23.42366538,-5.855916345,PmMgRh2
mp-976799,0,0.165879766,11.45259329,0.173882295,-20.56949531,-5.142373828,Ni3Bi
mp-648,2.4399,-1.277164648,1.826998044,0,-9.97271553,-3.32423851,Na2S
mp-780164,2.7228,-2.023652065,2.876670001,0,-370.3545273,-6.385422884,Na6Co2C4SO16
mp-30404,0,-0.538816995,7.627414885,0,-13.37218113,-3.343045283,Li2SbAu
mp-867168,0.6326,-0.935988095,6.563641154,0,-14.51302695,-3.628256738,Sr2SbAu
mp-676855,1.9491,-1.55098687,4.176217631,0.077833504,-144.0288879,-5.143888855,In(HO)3
mp-715438,0.5714,-1.781885969,5.35641385,0.062071672,-93.11871032,-6.651336451,Fe3O4
mp-31491,0,-0.828206901,8.863071144,0,-28.45915992,-5.691831984,Sm(GePd)2
mp-559807,0.1445,-2.01595225,3.340041439,0,-297.408418,-3.717605225,Sb2BrF17
mp-864783,0.0682,-0.990847605,10.70895948,0,-14.42203399,-3.605508498,Yb2SbAu
mp-12657,0,-0.443379673,7.417121586,0,-75.12229276,-6.260191063,HfAl2
mp-23382,0,-1.124610347,5.163627548,0,-53.93640985,-5.393640985,Y4CI5
mp-10039,0,-0.144456099,5.63792829,0.05514063,-28.04690162,-5.609380324,Pr3AlC
mp-581403,6.9762,-3.391521626,2.630035182,0.002974369,-174.8114038,-5.297315266,K3Na4Si3BF22
mp-3486,0.2653,-0.339148508,4.077145652,0,-20.52904702,-3.421507837,KSnSb
mp-542569,0,-0.69364801,7.832536559,0,-14.40141832,-7.20070916,AlRu
mp-27878,2.6822,-1.816011466,5.030815384,0.000984445,-162.4212294,-5.800758192,NaSb5O8
mp-625654,2.0789,-1.399648293,4.784392561,0.032959811,-208.4771107,-5.211927767,TeHO3
mp-771217,0,-1.883380283,2.614273503,0.065812696,-353.2223883,-6.541155339,Na4Co2P(CO4)4
mp-15066,4.7806,-3.460248906,5.295137143,0,-211.7554848,-7.562695885,LiTmSiO4
mp-3829,0.0521,-0.138171999,5.356918423,0,-29.54500657,-3.693125821,CdSnAs2
mp-1016092,2.6752,-2.053254131,5.837608053,0,-583.6152634,-8.105767547,Re2O7
mp-18737,1.7533,-2.911053051,7.265326056,0.07340764,-100.8549595,-7.203925679,Nd2NiO4
mp-27716,1.1727,-1.211359597,5.793272533,0,-22.67555495,-3.779259158,KTlO
mp-977368,0.7321,-1.28851998,6.117847467,0,-92.92698765,-4.890894087,K2Dy4Cu4Se9
mp-3217,0,-2.515749812,10.44094452,0,-53.11312053,-8.852186755,USeO
mp-19082,2.3341,-2.970784233,4.44854194,0,-85.8173864,-8.58173864,TiMnO3
mp-2599,0,-1.547975755,7.627431181,0,-15.81351927,-7.906759635,NdN
mp-38487,1.8615,-1.994098437,4.17587944,0,-70.52992275,-5.037851625,Li7BiO6
mp-865415,0,-1.207686715,14.99409766,0,-22.95142079,-5.737855198,YbTmPt2
mp-548691,0,-2.577704942,6.733599942,0.043015186,-68.22033131,-6.822033131,Sr2ZnReO6
mp-996978,0,-0.706989869,8.851949231,0,-18.65370376,-4.66342594,CuAuO2
mp-5556,0,-0.786010303,10.27482567,0,-40.76795791,-8.153591582,U(SiRh)2
mp-29761,2.2629,-2.837988318,5.346193553,0.005633175,-61.51686399,-8.788123427,UCO5
mp-776922,0.193,-1.117798182,2.976952356,0.002639864,-28.83862403,-3.204291559,Rb2O
mp-772046,0,-2.213840877,3.681585407,0.056929628,-164.8050175,-6.866875728,NbCu3(PO4)4
mp-976330,0,-0.4677603,8.747894502,0.02799373,-29.73788466,-7.434471165,LiZr2Ir
mp-21332,3.2816,-3.228844384,6.168643908,0,-149.4383565,-9.339897279,LiGdO2
mp-9789,3.078,-1.457821361,2.460617069,0,-100.3778062,-5.018890311,CaPS3
mp-756436,1.2102,-1.596745339,5.538628719,0.085273842,-26.29347348,-6.57336837,FeO
mp-29911,0.3372,-1.614625143,5.309198273,0,-111.7705579,-4.657106578,Ba3Sb2O
mp-19308,3.71,-1.617195515,4.029936717,0.001872203,-47.93801947,-4.793801947,Li2NiO2