id,band_gap,formation_energy_per_atom,density,e_above_hull,energy,energy_per_atom,pretty_formula
mp-571150,0.1184,-1.070209688,4.996147025,0,-128.157845,-4.577065893,Cs2Zr7CI18
mp-570192,0.8756,-0.973759821,5.030255485,0,-208.058633,-4.728605295,CsZr6MnI14
mp-28628,0,-0.520577807,3.247571105,0,-66.42432008,-5.535360007,Li3FeN2
mp-567966,1.1281,-2.190213202,2.912692207,0,-522.8392245,-5.683035048,RbZr6CCl15
mp-558392,0,-1.479574518,10.68319205,0,-142.7687394,-6.489488154,Bi2Ir2O7
mp-20469,0,-0.349315483,8.344892741,0,-11.1816748,-2.7954187,YbIn3
mp-27471,0,-1.017536282,5.250193674,0.064453933,-44.0799218,-7.346653633,NbPS
mp-976446,0,-1.890004167,4.052953608,0.491782625,-31.21200048,-6.242400096,MgMnO3
mp-762011,0.5994,-1.905738549,4.336917638,0.03840123,-90.02700291,-6.430500208,LiCrCoO4
mp-558170,3.6649,-2.499959171,3.655107933,0,-181.4589036,-5.670590736,Rb3PO4
mp-540133,0.6848,-2.352122804,2.548368974,0.060665918,-146.8436257,-6.674710261,LiCoP2O7
mp-779269,1.3092,-2.644295379,2.935476359,0.065214131,-209.9951405,-4.999884297,LiMnF5
mp-19264,2.7155,-2.194189294,3.676815391,0,-177.7267081,-6.83564262,Co3(PO4)2
mp-634430,1.4852,-2.333853742,3.729880328,0.156624605,-91.4063878,-7.617198983,VO2
mp-652548,0.0023,-1.843463015,4.881154169,0.005694331,-367.4316823,-6.561280041,MgMn3(CuO4)2
mp-850401,2.341,-2.751918524,3.10318307,0.059765179,-149.1770857,-5.327753061,Li2FeOF3
mp-2763,3.8338,-3.765317978,7.174298331,0.038091653,-41.03602661,-8.207205322,Nd2O3
mp-677391,4.1637,-4.001096692,7.601388102,0,-340.5861968,-8.962794652,Tm4Zr3O12
mp-30902,0,-2.623435324,8.200456239,0.035978473,-172.2191111,-7.828141412,Er2Ru2O7
mp-1033,0,-0.46773576,6.35907296,0,-10.44322851,-5.221614255,BeNi
mp-558326,5.587,-3.27826384,1.750092532,0.010887176,-853.6658064,-7.904313022,SiO2
mp-581877,4.947,-3.271042454,3.297507791,0,-554.3743555,-7.699643826,Cs2Zr(Si2O5)3
mp-7586,0,0.058718185,7.951565622,0.058718185,-52.65074056,-6.58134257,Ni3C
mp-767276,1.8272,-2.639465864,2.432633164,0.083513794,-285.8033028,-6.970812263,Li5Fe5Si7O24
mp-568727,0,-0.538175343,11.17484565,0,-38.52457525,-7.70491505,ErRh3C
mp-568670,5.2045,-2.488622395,3.357106932,0,-40.16597613,-4.016597613,Cs2NaTbCl6
mp-637609,0,-0.800253284,10.21771062,0,-264.7332102,-6.618330254,Ce12InPt7
mp-555313,2.7086,-2.789652451,7.101138282,0.033755723,-147.4331593,-7.371657964,ScBiO3
mp-850929,4.9151,-3.093914105,2.928358234,0.034180042,-172.999937,-5.242422333,Li4MnF6
mp-21276,0.5829,-0.873700262,7.345706051,8.98E-05,-8.91329099,-4.456645495,PbS
mp-755435,0,-0.01264833,11.96818683,0.014714587,-16.09092992,-2.681821653,Tl2Au
mp-19959,0,-0.698624532,8.124937204,0,-38.28323195,-6.380538658,LuTiGe
mp-647556,2.6689,0.072961163,4.68431208,0.072961163,-351.8166867,-6.638050692,Tl8(CdN14)3
mp-780497,2.6796,-2.469615288,3.230022612,0.003247724,-256.1163092,-7.114341922,Li2MnFe(BO3)2
mp-972275,0,-0.574230698,10.64347611,0.012054985,-39.80105382,-9.950263455,Ti2ReRu
mp-15965,0,-0.746169426,10.91671471,0.03463536,-144.0328919,-9.002055744,Hf5Si3
mp-28065,2.5081,-2.438492819,7.910271312,0,-47.86341098,-7.977235163,ThNCl
mp-22440,0,-1.108062751,12.62227313,0,-88.55680451,-7.379733709,LuSiIr
mp-20456,0,-0.279990773,6.841291588,0.002508084,-74.49583216,-5.321130869,Co3Se4
mp-29770,0,-0.370392874,4.261653525,0.021201241,-64.32179976,-4.947830751,Na3(Mn2Te3)2
mp-30677,0,-0.627422208,8.631770605,0,-134.4290229,-4.200906965,Tm3Ga5
mp-774318,0.7783,-1.762179039,4.491745782,0.086507908,-186.7334455,-5.492160161,Li10Fe3Co3(NiO8)2
mp-555030,5.5912,-2.921966699,3.012505349,0.010228776,-531.0293838,-7.375408108,NaY(PO3)4
mp-542816,0,-0.807681368,7.391840322,0,-135.6281959,-7.534899771,Zr5SiSb3
mp-979074,0,-2.018049504,8.571463032,0.552020251,-25.22962186,-6.307405465,TmO3
mp-4219,0,-0.738599143,9.862218347,0,-32.09297699,-5.348829498,CeGeAu
mp-1716,0.5649,-1.095088965,7.968572666,0.02400313,-131.394265,-6.569713248,Rh2O3
mp-662,0,-0.237448957,7.426512234,0.048170359,-19.48530761,-4.871326903,NiSe
mp-989540,0,-1.205504165,4.635163867,0,-42.35704408,-4.235704408,Sr6Sn2NO
mp-975296,0,-2.316605986,5.445793442,0.241878104,-29.85686976,-5.971373952,RbHoO3
mp-6875,4.7346,-3.317649033,2.951458612,0,-396.9884901,-7.351638705,BaNa2Al4(SiO4)4
mp-757365,2.3038,-3.551315424,7.308075582,0,-249.3956004,-9.592138476,LaTa3O9
mp-569841,0,0.007735461,2.284283205,0.007735461,-240.0614842,-1.905249875,Ba19Li44
mp-675896,5.2646,-4.188545743,4.294984682,0.134376094,-181.7969806,-6.059899353,Ca2NdF7
mp-675677,2.0582,-2.502398805,6.631623828,0.001088886,-84.67200371,-6.048000265,Yb(SmS2)2
mp-24066,4.98,-2.501893488,3.046420438,0,-40.82326028,-5.102907535,SrHClO
mp-19282,3.4088,-2.67581275,6.575475655,0.018461349,-65.36617831,-6.536617831,Sr2ZnWO6
mp-639135,0,-1.65869875,5.634500901,0,-155.9580307,-5.569929667,Pr3RuCl3
mp-4076,0,-0.185099837,7.775563739,0.005175433,-20.87184541,-6.957281803,VCoSb
mp-643367,0,-1.082002216,4.453039452,0,-41.13575832,-6.85595972,YCBr
mp-30197,5.1968,-2.48654053,2.655325818,0,-161.1477013,-4.028692533,K3ErCl6
mp-28927,0,-0.654347723,5.027547162,0,-39.70071807,-5.671531153,Ba(NiP2)2
mp-950995,2.2742,-1.326420551,2.221001501,0.002744837,-105.8844987,-4.072480718,Li6PS5I
mp-631320,0,0.550351458,15.51856991,0.690089285,-28.7879403,-9.5959801,TcIrOs
mp-6919,0,-0.692567627,9.098690923,0.068553653,-31.38651802,-5.231086337,ScSnAu
mp-769545,0,-1.44018149,4.642421941,0.006677931,-199.4704291,-4.986760728,Li10FeNi9O20
mp-567907,3.5819,-0.538030913,2.693616412,0,-120.5919826,-7.536998911,P3N5
mp-9003,1.6363,-0.939407666,3.767753609,0,-75.81271811,-4.738294882,K2NbCuSe4
mp-11982,3.2057,-2.825392218,5.052894199,0,-124.25046,-6.212522998,Sr2CaTeO6
mp-560866,5.2152,-2.965243826,3.152657699,0,-265.1302255,-7.364728485,LiLa(PO3)4
mp-673244,0.9262,-1.547551741,8.428403472,0.110042652,-28.21349415,-5.64269883,Bi2O3
mp-33500,0,-1.954830291,3.939886898,0.075710917,-49.07661718,-7.010945311,Cr2HO4
mp-9791,1.2589,-0.595117298,6.378213769,0.009835796,-26.30776595,-3.758252279,Tl3AsS3
mp-975200,0,-1.373880281,3.212276387,0.440317563,-22.24923281,-4.449846562,RbSrO3
mp-20622,0,-0.609087066,9.657921207,0,-93.58436511,-5.849022819,SiPd3
mp-4009,0.3844,-1.552998651,4.818885149,0,-40.48713457,-5.060891821,BaPdS2
mp-555769,2.6847,-2.789479252,7.106622875,0.033928923,-147.4296953,-7.371484765,ScBiO3
mp-770689,1.9528,-2.692998422,3.402147194,0.08095076,-147.5440491,-6.706547687,Li2MnAl2O6
mp-558303,0,-1.801062277,4.911381567,0,-144.7773705,-6.032390437,Ce3CuGeS7
mp-21594,0,-0.810224718,4.563847072,0,-156.1660405,-3.549228193,Ca9Zn4Sb9
mp-560208,3.1394,-2.283262932,3.282229193,0,-380.1060253,-6.335100422,K3NbAs2O9
mp-2562,0,-0.930847365,3.391421443,0.017909945,-28.97072505,-7.242681263,MnS
mp-696127,1.0491,-0.813911519,3.316351374,0.01138642,-193.4876846,-3.869753693,Li10Ge(PSe6)2
mp-770954,1.2711,-2.616007503,4.259930488,0.001540749,-213.7917497,-7.635419631,Li4Nb2V3Cr3O16
mp-14307,1.5651,-2.165359337,2.628247702,0,-86.56919714,-6.183514081,Mg(ScS2)2
mp-756325,4.4651,-3.510369038,5.124361969,0.09906584,-226.6240756,-8.093716987,La2(SiO3)3
mp-568746,0,-0.234552182,11.09693213,0,-27.35657673,-4.559429455,Bi2Pd
mp-7560,5.3104,-3.588235334,6.840115571,0,-83.64963531,-8.364963531,LuBO3
mp-756599,3.033,-3.266917253,5.516436803,0.032115384,-203.6003657,-7.271441632,La2ZnO4
mp-15492,3.2269,-3.445248122,8.422165608,0.003675813,-521.8344636,-9.663601179,DyTa7O19
mp-849542,0.5899,-2.431321589,3.07304155,0.025698225,-244.0371046,-6.77880846,Li2MnVP2(HO5)2
mp-29841,0,-0.862444048,6.333870871,0,-125.8067887,-5.990799463,Rh3S4
mp-757963,4.7113,-1.834310581,1.996919822,0,-265.2942787,-5.767266927,K2MgH8(CO5)2
mp-19104,0.8097,-2.4289799,7.160806056,0,-167.2262862,-6.967761923,LiYb(WO4)2
mp-754064,0,-0.429750416,4.84357752,0.044208374,-42.53617841,-7.089363068,MnP2
mp-29157,0.5184,-0.410375155,5.429212108,0,-71.22924004,-5.935770003,Si3P2Pt
mp-27304,1.0976,-1.797378383,2.364226545,0,-35.07942921,-3.897714357,K2MnCl6
mp-36538,2.183,-2.086699783,5.950970933,0.019687038,-84.03845524,-6.002746803,La2PbS4
mp-555904,3.5496,-2.849766966,4.906827209,0,-190.1261055,-6.790218052,NaSmGeO4
mp-13008,0,-0.391382004,7.282957762,0.040570044,-60.45389614,-6.045389614,NdCrGe3
mp-29241,0,-1.776272746,3.70880302,0,-23.12406075,-4.62481215,Ca3SnO
mp-975134,0,-1.215420171,4.961051155,0.050198931,-27.21361867,-5.442723734,KRhO3
mp-3463,0,-3.365734457,4.327745051,0.02469024,-116.5247029,-8.323193066,CaTi2O4
mp-569175,3.6106,-2.251490226,2.457165386,0,-49.64075399,-4.964075399,ZrCl4
mp-772511,0.5428,-1.965032764,5.521816811,0.035402347,-166.0304213,-5.929657904,Li4Co3Sn5O16
mp-608398,1.8156,-1.23431345,2.290162597,0.090958778,-160.6478272,-4.462439645,NbSNCl6
mp-6698,2.9243,-3.189778085,5.283593776,0,-286.5629418,-7.960081716,Th2Cu(PO4)3
mp-769032,1.4086,-1.479913297,2.896574386,0.000953963,-166.1361506,-5.191754705,Li3NbS4
mp-35482,1.1152,-1.918028237,4.674429732,0.349104535,-89.55013945,-6.888472265,Ti(FeO2)4
mp-17966,3.8447,-2.635600901,3.309251294,0,-293.0331904,-6.659845237,KInP2O7
mp-770500,1.4536,-2.381566978,2.859681926,0.02255725,-379.7076354,-6.546683369,Na6Mn2B4SO16
mp-504944,5.1356,-2.16913992,2.084921442,0.032622441,-379.8915946,-5.935806166,NaP(HO2)2
mp-780132,0,-2.179821851,4.443279229,0.030710958,-265.6159702,-7.378221394,NaCr6O11
mp-12187,4.4103,-3.145831856,2.529847991,0,-721.9176009,-7.219176009,Na2Mg2(Si2O5)3
mp-776751,1.2868,-2.1957967,4.08485889,0.058432408,-189.430851,-6.765387535,Li4V5Co3O16
mp-974799,0,0.16822285,1.794051314,0.16822285,-4.06075937,-1.015189843,Rb3Sr
mp-6622,1.9459,-3.670984821,5.626595645,0.00771313,-272.2921518,-8.509129745,BaNd2Ti3O10
mp-20350,0,-0.314196373,8.539035407,0,-43.76700188,-7.294500313,DyCoC
mp-4822,0,-0.95086319,6.877062782,0,-32.42861833,-6.485723666,Y(SiPd)2
mp-696128,2.0551,-1.26913081,2.000486532,0.03004285,-215.6467082,-4.312934163,Li10Ge(PS6)2
mp-764957,2.7601,-2.525470594,3.226078027,0.014972735,-206.3467293,-6.44833529,Li2CoSiO4
mp-29345,2.2483,-0.780753749,4.183903315,0,-53.59835107,-2.679917554,LiGaI3
mp-542662,1.4191,-1.275642659,2.828074562,0,-140.6207746,-3.195926695,Ga2Te2Cl7
mp-5373,2.721,-3.774138242,4.838696398,0.008837077,-199.6589,-9.075404546,Y2Ti2O7
mp-630883,0,-0.470547684,8.22443358,0.001262123,-155.5992651,-7.07269387,Ni6Mo2P3
mp-38816,0,-1.737275865,3.185027359,0.02852559,-83.49277891,-6.422521455,Mg(TiS2)4
mp-556562,3.7844,-2.000569157,2.348093719,0.015122664,-162.4129128,-4.776850377,LiAsH6(OF2)3
mp-24308,5.403,-0.890523031,1.227964142,0,-351.5219188,-5.169439983,AlSiH9C3Cl2O
mp-696019,3.5798,-2.010115627,2.188047619,0.049985736,-179.0809926,-5.596281018,Na3P2H4O7
mp-997008,0,-0.785390208,10.47335877,0.014077926,-34.46992403,-4.308740504,TlAuO2
mp-2179,0,-0.399324877,12.81342318,0,-21.13963431,-10.56981716,TiRe
mp-775286,0,-1.547153807,4.403558869,0.134500555,-80.08216922,-5.720154944,Li2Fe3NiO8
mp-2632,1.256,-2.119408859,8.023652609,0,-60.42494003,-3.776558752,TlF3
mp-6988,0,-0.312411651,6.106357637,0,-17.03712636,-8.51856318,FeN
mp-1008867,0,-0.698067748,4.505323733,0.537367762,-11.75831223,-3.91943741,NaCuO
mp-774350,1.1942,-2.875229936,3.877888835,0.014320253,-232.9540003,-6.470944454,Mn6OF11
mp-754329,0.958,-1.867093826,6.808460961,0,-53.87769301,-5.387769301,CdSnO3
mp-14092,1.0466,-0.360169449,5.137258001,0,-28.60456962,-3.575571203,AlAgTe2
mp-558608,2.5371,-2.761456698,6.199873658,0.015457639,-222.4180551,-8.237705745,Nb2PbO6
mp-541600,2.2853,-3.40311079,6.701847247,0.021881969,-96.67316331,-8.788469392,RbLaTa2O7
mp-756810,3.2939,-3.603660829,6.630188956,0.015957148,-181.7089486,-8.652807077,Sr3Ta4(O6F)2
mp-15614,0,-0.387436624,6.906389423,0,-70.92644425,-5.066174589,Cu(RhSe2)2
mp-541740,2.9698,-3.133730085,4.632308415,0,-482.6675043,-8.619062577,TaPO5
mp-984705,0,0.126901586,11.91612336,0.41067085,-31.85786221,-7.964465553,ErRu3
mp-978514,0,0.027800969,8.835084023,0.027800969,-18.03968004,-4.50992001,SmTm3
mp-752728,5.0594,-2.246589039,2.997919726,0.003721774,-126.5185756,-5.750844343,Rb2S2O7
mp-755792,3.6376,-3.184200669,8.887078578,0.053937238,-144.6271456,-7.231357278,LuGaO3
mp-32787,1.9344,-2.438756182,6.652219147,0.034637636,-253.9452807,-6.348632018,Ho2S3
mp-32684,4.486,-0.306189167,2.435928939,0.021679438,-21.9245191,-2.740564888,HBr
mp-18271,2.5273,-2.963702407,2.987742767,0,-323.7104877,-7.037184516,Na5Ti2Si2PO13
mp-697692,1.2462,-2.388518881,2.784403625,0.075421889,-331.2992533,-6.902067776,LiCr(PO4)2
mp-16505,0,-0.393361226,4.002686042,0,-61.51596674,-4.393997624,La3Al11
mp-998314,0,-0.924917526,4.418404861,0.02521163,-12.82901374,-2.565802748,CsInI3
mp-21052,0,-0.870095193,9.496441696,0,-53.42709516,-5.342709516,Tb2InPd2
mp-12381,0,-0.840548,8.744522768,0,-55.98498246,-6.220553607,PrSnRh
mp-568624,0,-0.338741767,7.46804608,0.076068388,-52.65959568,-7.522799383,Tb2B2C3
mp-771903,0.5263,-2.28936283,3.466912593,0.059310896,-249.0432392,-6.917867754,Fe5Cu(PO4)6
mp-559441,3.0704,-3.053518488,3.054720217,0.013473084,-243.1004728,-7.596889776,LiTiPO5
mp-612670,0,-0.516101663,5.821369033,0,-60.42809491,-7.553511864,YNiBC
mp-999516,0,-0.457768244,5.502445446,0.157206468,-30.96916019,-7.742290048,MnP
mp-976884,0,-0.694146975,10.44512711,0.07439196,-21.81479819,-5.453699548,PrBiPd2
mp-20525,0,-1.633451116,3.734333608,0,-137.0803131,-5.711679711,CuSO4
mp-864835,0,-0.667236185,15.20008683,0,-38.55122159,-9.637805398,Hf2CoIr
mp-676586,0,-1.348200343,3.000448512,0.015708773,-42.79188875,-6.113126964,Na(VS2)2
mp-705390,0,-2.387200194,2.776407141,0.081634427,-654.300572,-6.815630958,Li3Fe4P9O32
mp-571550,0.5521,-0.187369877,5.728494678,0.036976872,-19.31295578,-3.862591156,Sb2TeSe2
mp-766570,1.8076,-4.195921732,8.689966225,0.006361452,-194.7267542,-9.272702581,Ce3Th4O14
mp-780184,1.9087,-1.711112764,2.65258647,0.048340971,-241.252317,-6.348745184,Na2Cr4O13
mp-20722,0,-0.507008241,7.491058275,0,-30.79743392,-6.159486784,CeFeGe3
mp-680781,0.4685,-2.304807827,3.543611708,0.281365919,-224.8587246,-5.917334857,Rb3Tm(SO4)3
mp-754655,0,-2.706257983,7.149002231,0,-46.05488223,-9.210976446,Eu2SeO2
mp-977053,0,0.023911802,7.363988617,0.023911802,-37.42230233,-4.677787791,Pm3Er
mp-4228,0,-0.757465025,6.806066723,0,-33.62304371,-6.724608742,Nd(CoSi)2
mp-597,0,-0.372018636,6.529893085,0.025947745,-129.7747899,-7.209710552,TiNi
mp-864951,0,-0.246076137,14.20261394,0,-36.32503884,-9.08125971,MnAlOs2
mp-759870,2.9046,-2.190795066,8.319619523,0.054052247,-257.8815273,-5.37253182,BiOF
mp-676711,1.2211,-1.535571845,3.020481785,0.376109717,-114.3851456,-4.085183772,CIF5
mp-18960,2.9661,-3.232445005,5.791544322,0,-96.52989466,-8.044157888,ErVO4
mp-761873,0,-3.498148937,2.497377598,0.019357395,-71.35711167,-5.946425972,KTiF4
mp-778057,2.1033,-1.73587986,3.81422469,0,-190.5474414,-4.763686035,Na2SnO2
mp-29002,0,-0.355497693,3.048873028,0,-124.4881074,-3.890253356,SrMgSi2
mp-765394,3.2172,-2.236500854,3.558665016,0.059581403,-347.9455218,-6.213312889,LiNiPO4
mp-511,0,-0.833500945,6.808425109,0,-22.1468591,-5.536714775,PrGe
mp-754871,0.3472,-1.863542813,4.199307884,0.096623128,-151.1954555,-5.815209827,Na3BiAsCO7
mp-542522,1.1683,-0.525564014,6.216875852,0.030484944,-102.110292,-3.293880386,Bi14PdBr16
mp-1013706,0,-0.484127933,4.102311022,0.459334615,-15.4983909,-3.09967818,Sr3BiSb
mp-540331,1.5611,-2.561923671,2.403531166,0.034054474,-255.714315,-7.103175418,LiMn(PO3)4
mp-1798,0,-0.013105262,3.498033796,0,-21.59949832,-2.69993729,CeMg3
mp-30182,0,-0.646716355,7.187353062,0,-34.0910245,-5.681837417,ThAl3Ni2
mp-19737,0,-0.501306572,5.924914516,0.002865755,-42.03015535,-7.005025892,LaMnSi
mp-644295,3.8972,-3.15995585,4.289201818,0.010813637,-123.1685714,-7.698035714,CaZrGeO5
mp-28967,0.9006,-1.218334259,4.925079209,0,-69.33378304,-4.952413074,Ba(PdS2)2
mp-504729,2.2742,-2.431002504,4.114336384,0,-37.3712454,-4.1523606,Cs2PdF6
mp-571405,0,-0.389006769,9.670589269,0,-7.91005828,-3.95502914,NdTl
mp-976892,0.1027,-0.397360207,6.586036668,0,-92.26839509,-6.590599649,Na(TeMo)3
mp-607080,0,-0.14731019,8.529974641,0.001726473,-119.5173169,-4.268475603,NdCu9Sn4
mp-759686,5.3608,-2.985294141,2.988534979,0.006924317,-256.569523,-7.126931193,BeAlSiHO5
mp-7951,0.6305,-1.735052197,8.353360493,0,-78.37623713,-6.531353094,ThSe2
mp-3128,0,-0.776417756,7.313705671,0,-51.26742178,-6.408427723,ErCoSi2
mp-569434,0,-0.476827983,7.911736048,0,-49.11803735,-3.069877334,Yb2(ZnGe)3
mp-759288,2.7106,-1.184155878,2.837370521,0.104727335,-99.63391076,-4.981695538,GaH5(NF)2
mp-769009,4.1941,-2.773992232,2.667721913,0.089296057,-187.3338025,-4.683345062,Ba2YCl7
mp-3456,0,-0.600666854,7.179777889,0,-26.68001783,-5.336003566,Tb(CuSi)2
mp-9364,2.2862,-2.15727385,4.285753367,0,-21.29081405,-5.322703513,RbSmS2
mp-850280,1.7322,-1.645675182,3.327180454,0.05516918,-64.76022852,-4.317348568,Na8SnO6
mp-696701,3.3043,-1.510346626,5.923172829,0.001978793,-73.85144506,-4.615715316,HPbClO
mp-19847,0,-1.094378649,9.965414118,0,-29.61075858,-5.922151716,Tm3InN
mp-12623,1.5046,-2.868128486,4.868593366,0,-59.98741412,-4.998951177,BaPdF4
mp-777917,0,-2.06711566,4.166174457,0.095929483,-182.4176757,-6.514916988,Li4V5Cu3O16
mp-21014,0,-0.877852184,10.43809519,0,-22.48253398,-5.620633495,DySnPd2
mp-17105,0,-0.254153491,11.40911497,0.014399961,-265.8548781,-9.494817076,Hf9V4S
mp-1018088,0,1.299378986,2.275260291,1.299378986,-31.70437838,-7.926094595,C
mp-542863,3.5327,-3.500455604,3.173477458,0,-448.2274958,-7.470458263,Ca7NbSi4O17F
mp-5227,0,-1.017078605,8.077104632,0,-32.06693858,-6.413387716,Dy(NiP)2
mp-695830,0.58,-1.419085885,2.867562217,0.026278926,-209.0025899,-4.75005886,Na2Cu(HO)4
mp-558768,0.0015,-0.986046251,6.72483795,0,-195.6464808,-4.658249543,Ag2TeO4
mp-556585,2.7675,-2.983345984,3.791824362,0.003985361,-77.07814931,-6.423179109,MnF2
mp-996995,0.3077,-1.443984981,6.101277325,0,-24.53584299,-6.133960748,MnAgO2
mp-972941,0,-0.089401564,8.796913661,0.054141324,-26.78148517,-3.347685646,NaBi3
mp-30734,0,-0.74560202,10.23366083,0.01081067,-101.7918777,-6.361992356,Ho5Rh3
mp-752959,0,-2.548809523,4.534981693,0.043372248,-165.7251631,-7.205441875,Sc5Cu5O13
mp-773671,0,-2.415009867,3.318034415,0.031521707,-260.4487758,-7.234688218,MnFe(PO4)2
mp-561454,1.4488,-1.808617776,3.881448261,0,-133.6550557,-5.568960656,KAu(SO4)2
mp-28760,2.2215,-1.228116411,2.579423921,0.008094587,-37.10253824,-3.091878187,KRbS
mp-14439,1.4852,-1.417231823,3.501562312,0,-311.9727982,-3.899659978,K5TlO4
mp-721707,4.3668,-0.875286357,1.673386034,0.007534155,-422.434227,-6.600534797,H6C3N4O3
mp-37906,2.2707,-0.764864744,2.387697817,0,-13.75937403,-4.58645801,LiMgN
mp-21054,0,-0.902861773,8.505999054,0,-50.03941851,-5.55993539,PrSnPd
mp-29570,0,-0.460266218,3.460714218,0,-51.74162393,-4.311801994,Ca2Si3Ag
mp-9512,5.4897,-3.356713174,3.463726164,0.00780035,-428.0118713,-7.133531189,SrAl2P2(O4F)2
mp-5077,0.7064,-0.570101674,3.281383113,0,-11.56209974,-2.890524935,NaLi2Sb
mp-643941,4.691,-2.677478431,2.88520363,0.016671253,-209.0674828,-6.533358837,CaAl2Si(HO2)4
mp-4562,0,-0.914231346,8.545544931,0,-33.43711651,-6.687423302,La(GeRh)2
mp-12783,0,-0.34935665,6.159741284,0,-11.32164262,-2.264328524,Sr(CdGa)2
mp-720583,4.544,-2.392879218,2.270355005,0,-384.0334092,-6.40055682,Na3B3H2O7
mp-5313,0,-0.504985943,9.272026853,0,-42.29501365,-7.049168942,HoCo3B2
mp-974584,0,0.653561708,18.82277338,0.653561708,-19.65047526,-4.912618815,ReAu3
mp-684743,1.5436,-1.151605329,2.973003386,0.331672614,-174.550723,-6.018990448,GaGe5H6C4NO12
mp-542314,1.6137,-2.312651159,6.46339644,0.011043988,-51.61165241,-6.451456551,NdCuSO
mp-600049,5.6466,-3.256713477,1.801067507,0.032437539,-756.7452153,-7.88276266,SiO2
mp-8179,0.4015,-1.477079978,8.082192135,0.023669812,-37.27214423,-4.659018029,LiTlO2
mp-644097,2.7019,-0.432823106,3.392537105,0,-99.60456755,-3.557305984,BaAlH5
mp-568718,0,-0.395226041,6.258946027,0,-45.55888303,-5.694860379,HfAl3
mp-28878,0,-0.244171021,5.28882435,0.020028842,-43.16044079,-3.082888628,RbTe6
mp-540884,0,-1.785862237,3.566988822,0.051993915,-22.5859192,-5.6464798,YCl
mp-622624,2.1846,-2.106077557,3.978050562,0,-384.8202249,-6.413670415,Rb2Cr2As2O9