id,band_gap,formation_energy_per_atom,density,e_above_hull,energy,energy_per_atom,pretty_formula
mp-555439,6.7392,-3.03581647033638,3.5213497205362723,0.06627639437499955,-73.18180646,-4.57386290375,CsLi3F4
mp-752656,3.131,-3.5830965296428565,6.270479193236934,0.00799784250001423,-215.42129049,-7.6936175175,BaLa2O4
mp-765558,,,,,,,
mp-16828,5.6046,-2.8254372531060614,2.2220173690442837,0.0,-331.18021649,-7.526823102045455,Li3B7O12
mp-24396,5.1964000000000015,-1.6388332229958649,1.6604571304859346,0.011930236296299412,-565.50806488,-5.236185785925926,MgH14SO11
mp-767963,,,,,,,
mp-705134,3.7072,-2.0604088825735287,3.6126756943343015,0.0,-907.37767607,-6.671894676985295,In2(MoO4)3
mp-771189,2.1187,-3.4406331825000005,5.7463544763775225,0.022324960294119126,-132.30846063,-7.7828506252941185,Ba4Ti3O10
mp-1020060,5.5096,-2.0562563146875,2.1182866425290605,0.0,-984.35772655,-6.1522357909375005,LiB(S2O7)2
mp-35907,1.0812999999999997,-1.477998676071428,6.860081749245904,0.0,-72.88007735,-5.205719810714285,La5TlTe8
mp-554686,2.6713,-2.08995771988058,3.3081444961628126,0.0,-338.50076137,-3.6793561018478265,MgAs2(XeF9)2
mp-776905,,,,,,,
mp-12878,3.7028,-3.109309826416667,5.517533544452994,0.0,-141.08225565,-7.054112782500002,Sr2YSbO6
mp-927,0.8231000000000002,-0.11218351571428542,4.285587397351328,0.0,-61.04931576,-5.08744298,CuP2
mp-757156,2.8195,-2.4711203684873952,3.043712909736421,0.03138706294117277,-237.20494063,-6.9766159008823525,Sn(PO3)4
mp-31250,3.0215,-2.3003678834166656,6.565821494686202,0.0,-139.21857138,-6.960928568999998,BiBO3
mp-30143,2.0411,-1.8320550690909088,5.55125232198872,0.0,-136.9147153,-6.22339615,U(IO4)2
mp-7289,0.5885000000000002,-0.7030967711999999,3.970605232317749,0.0,-60.66473816,-3.033236908,K2Te3
mp-566700,,,,,,,
mp-26630,2.7356,-2.9658194880892865,2.7215530965437607,0.006500262250000333,-156.19895545,-7.8099477725,TiP2O7
mp-9855,0.7601999999999998,-1.6045358603958335,4.809673885300116,0.0,-70.4259503,-5.868829191666666,KHfCuS3
mp-540313,4.1886,-2.445481296687924,3.0442226483093413,0.14458333714285845,-192.66560969999998,-6.880914632142857,LiFe(PO3)3
mp-776361,0.939,-2.1443242249519985,4.3372326912059425,0.053873649261999994,-373.29869319,-9.332467329750001,Ti2N2O
mp-998198,4.085,-1.9408014525,3.20344031649794,0.02415849300000028,-17.59478369,-3.518956738,RbCaBr3
mp-740750,4.8057,-2.245284476888128,2.113907875360556,0.03171058879310884,-350.27737459,-6.039265079137932,Na4P4(H2O5)3
mp-762315,,,,,,,
mp-1394,1.3243,-1.13509305875,3.817390910992089,0.0031738266666669897,-9.61201279,-3.204004263333333,Rb2O
mp-761358,,,,,,,
mp-30123,0.7264,-0.9303767073242196,7.053017959401967,0.0,-262.19608416,-4.096813815,Hg2SeO5
mp-765555,,,,,,,
mp-770680,2.1141,-1.5406876609365168,2.6863398409898074,0.7416196896666669,-402.66668447,-5.033333555875,Li9Mn2AlO8
mp-31615,,,,,,,
mp-559391,4.8317999999999985,-3.3842082322353333,4.716702844787928,0.0049636823333294436,-218.86762688,-7.295587562666666,Pr3Si2Cl3O7
mp-771633,,,,,,,
mp-29920,0.8347,-0.861048787,5.481969159637144,0.0,-63.65226758,-3.1826133789999997,Rb5Au3O2
mp-764226,,,,,,,
mp-772959,5.477,-3.1637212885808275,3.8637520943051733,0.026405592894736433,-584.36939449,-7.6890709801315795,Er2P4O13
mp-558330,2.0229,-1.1009007248625,3.41653241635628,0.0,-102.78142835,-3.2119196359375,IClOF
mp-762448,,,,,,,
mp-28234,4.3195000000000014,-3.4382563363671874,3.6826698332290793,0.01160113124998663,-475.27643873,-7.42619435515625,CaAl12O19
mp-29060,1.4010000000000002,-1.0200849420599996,5.394883869571478,0.01479517249999951,-325.67029133,-6.262890217884616,Ba5(SiN3)2
mp-554025,4.0481,-0.8342972561205555,2.0505560339729483,0.1751578114593242,-92.09342374,-5.1163013188888895,SNF
mp-754377,3.1657,-2.311199975777777,2.5100445888950764,0.08265225666666431,-100.24022057,-5.5689011427777775,K4TiO4
mp-10486,1.5883000000000005,-1.6809759053409097,5.06562352297983,0.013143376818180563,-59.33981492,-5.3945286290909085,Cd2As2O7
mp-557027,4.3938,-2.9828858691346163,2.9984445890402034,0.0,-177.56769953,-6.829526905,Rb2Be2Si2O7
mp-764344,2.9324000000000003,-2.6092669294791677,3.0653656267571177,0.02160371875000067,-211.33732285,-6.6042913390625,Li2FeSiO4
mp-771545,0.6452999999999998,-1.972149544988296,3.9064663731573095,0.08631106464646354,-144.60956642,-6.573162109999998,Li4Mn5CoO12
mp-868637,,,,,,,
mp-18642,1.5336999999999996,-2.4789529920238103,3.4241152329104985,0.0,-184.70496984,-6.596606065714285,Ca(YS2)2
mp-8256,2.0909999999999997,-2.0564955027675,5.875431630194251,0.0,-32.30563314,-4.0382041425,ZnPtF6
mp-557382,,,,,,,
mp-761872,0.5710999999999995,-1.7069386476785715,4.5322695478627875,0.0816993135714279,-70.58920582,-5.04208613,Na2Sn2O3
mp-777552,,,,,,,
mp-753257,0.8279999999999998,-2.2316715269044436,3.3900756762347743,0.0,-50.16071844,-4.18005987,LiCuF4
mp-772596,0.26380000000000026,-1.0981193005952383,4.754591681540916,0.2131477914184261,-139.48120421,-4.981471578928572,Li2FeNi3O8
mp-10476,5.7495,-2.6586469638541668,3.963035975822845,0.0,-157.38942971,-6.5578929045833325,NaEr(SO4)2
mp-24144,4.8217,-2.110219368820715,2.174800245971069,0.0,-362.57013789,-6.474466748035715,Na5ScH4(C2O7)2
mp-27579,4.4173,-2.6210795596840666,2.5064581963664643,0.0,-319.4766252,-6.143781253846153,Na4P2O7
mp-7572,5.4889,-2.528686009409721,2.8919035857202307,0.0,-74.44932743,-6.204110619166666,MgSO4
mp-23497,3.1982,-0.942933462619048,4.234199851666984,0.02707702526785738,-71.09550724,-2.539125258571429,Li2ZnI4
mp-558660,3.623,-2.7269694700238096,4.999150196023645,0.0,-260.94872635,-6.52371815875,Mg2BiPO6
mp-557561,2.4604,-1.8499980627083337,4.176856375793866,0.016140362222215817,-317.98086582,-5.888534552222223,Sm6Si4S17
mp-764944,,,,,,,
mp-743573,2.5406000000000004,-2.3487255788797,3.7796680411528207,0.3141395002631544,-505.26237226,-6.6481891086842095,KBaFe2(PO4)3
mp-18795,0.7724999999999995,-1.9333780889345504,5.100992728741415,0.0,-140.78728718,-7.039364359,Mn3TeO6
mp-775525,,,,,,,
mp-743699,,,,,,,
mp-769773,,,,,,,
mp-22232,0.7902999999999998,-0.5204307511718747,6.651771046805142,0.0,-28.37376522,-3.5467206525,TlInSe2
mp-10572,4.6825,-0.8277458470828565,3.08489975085431,0.0,-51.88287326,-6.4853591575,NaPN2
mp-566695,,,,,,,
mp-23582,1.4216000000000002,-1.9935106864642853,4.077835580746559,0.0,-69.83349487,-4.988106776428571,KLi6BiO6
mp-5914,3.3011,-0.9669992859322226,1.7371879957275196,0.0030772766666649076,-136.45239717,-5.685516548750001,Li3BN2
mp-560331,1.8945,-1.6536424449642868,2.5764521692401807,0.0,-289.88764085,-5.176565015178572,K2ZrS4
mp-779608,3.1069,-3.1097164831060606,4.523144074586638,0.0495056227272741,-157.5931358,-7.163324354545455,Ba3(BO3)2
mp-540146,1.0758,-1.9278976844477664,2.9003459770979614,0.5268927029166672,-165.77676065,-6.907365027083332,MnPO4
mp-6276,3.6882,-2.120924497519737,3.4104979635080066,0.004549136710526369,-422.79089653,-5.563038112236842,K2Cd2(SO4)3
mp-540320,,,,,,,
mp-6598,0.8983,-2.4928256565939844,2.7459492571569357,0.0,-252.56964222,-6.6465695321052625,K2Cu(PO3)4
mp-978489,1.2251000000000012,-2.18154848575,8.933261661202812,0.42394833850000607,-32.78071904,-6.556143808,SiPbO3
mp-705495,5.5273,-2.3197636945941182,2.371278685593457,0.014194369558807375,-446.5504981000001,-6.566919089705883,CaB3H5O8
mp-769677,,,,,,,
mp-541096,2.1254,-3.2469404656034486,5.216666993884692,0.0,-307.9382977,-8.553841602777778,CsUNbO6
mp-600067,5.74,-3.2502299342857146,1.3724296107354896,0.02776773488095152,-662.63151907,-7.888470465119048,SiO2
mp-780764,0.3498999999999999,-2.322764572335433,2.7666273720929624,0.07956063730881803,-455.40236342,-6.697093579705883,LiCuP4O11
mp-16813,1.9526,-1.0836296788686102,1.850714751262424,0.11068186732595198,-278.58578163,-5.8038704506249985,BS4N4F3
mp-695816,2.4151,-2.5023499520508663,2.7454357075866733,0.057914614545452985,-302.86919748,-6.883390851818183,LiFeP2O7
mp-757791,4.0156,-3.9710293810833335,5.0228386333779085,0.002428805156249325,-362.44594882,-9.0611487205,SmY15O24
mp-559984,1.2244,-1.3147082567187498,4.816508287612125,0.0,-237.71794805,-3.71434293828125,Rb8AlAu3O4
mp-779963,,,,,,,
mp-762697,,,,,,,
mp-7958,3.8889,-3.017453372625,4.590395297651766,0.0,-26.60755048,-6.65188762,KLaO2
mp-10495,1.0786999999999995,-1.7086068609375005,5.638046288919715,0.0,-90.59102823,-5.661939264375,NdCuS2
mp-23444,2.857,-1.8952157229316668,2.6182639078853818,0.0,-91.19661901,-3.799859125416667,AsCl2F3
mp-653450,0.2108000000000001,-1.1113599345960508,5.7256357185653375,0.015482663888900737,-266.52165616,-4.935586225185186,CuAg7As4ClO14
mp-690112,0.4911999999999999,-1.6713736573466664,6.6389262017016755,0.3467197655000032,-60.97034533,-6.774482814444443,H(WO3)2
mp-6404,4.0726,-1.0725258353565978,3.7766582897547387,0.0,-625.40128105,-7.445253345833333,BaCa2(PN2)6
mp-643260,2.2799,-0.3363081977828572,2.7308391150799265,0.0,-23.11403698,-3.3020052828571433,Na2H4Pd
mp-775274,3.1228,-2.0597267626428573,2.499548117200165,0.015700732142857277,-165.04637831,-5.8945135110714295,K2CrO4
mp-27047,1.4878,-2.308488874613096,3.4103721632754547,0.04937844906250355,-97.56182222,-6.09761388875,Li2CuPO4
mp-762903,,,,,,,
mp-14941,5.2252,-3.2682737634870587,6.146956169847693,0.0,-364.94470358,-5.366833876176472,Al2Pb3F12
mp-771328,1.7324000000000002,-1.5235570388888888,4.557383652127644,0.010524800555556268,-153.31760426,-4.2588223405555565,Rb4PbO4
mp-34569,1.5820999999999996,-1.5397593180952376,4.384033175254007,0.7070998723809518,-244.98280259,-5.832923871190476,Mg(FeO2)2
mp-867929,1.7942999999999998,-1.8771730216840288,5.205836782652092,0.0,-138.49194494,-5.770497705833333,Sm3SiAgS7
mp-540028,,,,,,,
mp-776475,5.2158000000000015,-3.4059636929999995,3.745220817455513,0.029764636750001294,-298.06373225,-7.451593306249999,Al2O3
mp-776773,,,,,,,
mp-753594,2.6480999999999995,-2.231902867480001,8.659975520673639,0.0,-32.49668117,-5.416113528333334,BiOF
mp-764686,,,,,,,
mp-867583,0.2936000000000001,-1.3953018967500006,6.4203726751196415,0.04366337266666509,-160.05020719,-5.335006906333334,AgSbO3
mp-561202,1.0127,-0.8504439892499992,2.710107964211168,0.0,-177.35908901,-4.030888386590909,K6NbAs3O
mp-562181,,,,,,,
mp-25684,,,,,,,
mp-763022,1.726,-2.212668510396668,4.326713460319882,0.07749828541667636,-144.32414539,-6.013506057916668,FeOF
mp-556883,,,,,,,
mp-761418,,,,,,,
mp-762062,,,,,,,
mp-761830,,,,,,,
mp-772077,2.9223000000000003,-1.5244146158333334,4.4155819674549965,0.0675667121428587,-213.40794498,-3.8108561603571434,BaYI5
mp-14387,4.473000000000001,-3.7000375538749997,5.962930768347074,0.0,-630.31885661,-7.878985707625,Tb3Al5O12
mp-8603,1.4199,-1.0082516248611106,4.491643576983608,0.0,-44.33393389,-3.694494490833333,RbAgO
mp-769026,1.3024999999999998,-1.8278611153472217,6.149964194372816,0.05185154770833211,-125.63370074,-5.234737530833333,Li2BiO3
mp-763537,,,,,,,
mp-28275,4.8518,-2.5439594589125,3.1847912132246217,0.0,-133.45159138,-4.170362230625,Rb2PrCl5
mp-704204,2.4,-2.5672397876934534,2.6124766503428845,0.0664194196000043,-278.64814228,-6.966203557,Li2MoP4O13
mp-754920,6.6196,-4.302584572040476,4.64211638309356,0.06157050571428701,-182.42355264,-6.51512688,BaYF5
mp-6416,3.3681,-3.2781058670065777,7.979207147698423,0.012866205526315788,-264.89909276,-6.971028756842105,Ba5Er8Zn4O21
mp-767032,,,,,,,
mp-773598,1.3677,-2.5352833778174593,3.358408902609634,0.02032604482639222,-262.22242606,-7.2839562794444435,TiFe5(PO4)6
mp-764602,,,,,,,
mp-680087,2.021,-1.1429201521306824,3.998530511843812,0.000582764788960688,-308.80479415,-3.5091453880681818,ZnS
mp-32494,,,,,,,
mp-778079,6.4487000000000005,-4.3243299091833345,5.166870197212847,0.03982516857142926,-45.75810552,-6.536872217142857,BaYF5
mp-28222,1.9084,-1.1539774880357143,3.689068853325969,0.011312389642856413,-42.08762508,-3.0062589342857144,Rb3Sb2Br9
mp-558491,6.0694,-3.556036001182916,4.276110096974457,0.0,-112.74064397,-7.046290248125,BaAlBO3F2
mp-849797,4.5168,-0.34997394465374965,1.5013452827679703,0.0,-824.29316323,-5.151832270187501,B6H10C2SBr
mp-771923,,,,,,,
mp-27938,1.7794000000000003,-0.6517888016477271,6.554030333379075,0.0,-61.81724093,-2.8098745877272724,Tl6SI4
mp-10834,0.9448999999999996,-1.9518455050000003,4.5987059781381845,0.0,-88.24550134,-5.51534383375,RbNd2CuS4
mp-626219,4.7683,-1.0299197924049992,1.6833553994922907,0.03143764203124544,-221.14225842,-4.60713038375,H5ClO6
mp-5878,3.7137,-2.8354007633140004,3.8025931930463055,0.0,-20.80851377,-4.161702753999999,KZnF3
mp-765172,1.0278999999999998,-2.084882464268571,4.451091238554485,0.08999891428571427,-172.5419983,-6.162214225,Fe3(OF)2
mp-766558,0.502,-1.902652791684551,3.9817272248210074,0.04910028175000747,-273.02125077,-6.82553126925,NaMn3O6
mp-615850,2.4616,-1.2484149540079796,5.2475184825240495,0.01103063577292307,-154.04150621,-5.9246733157692315,Pb2Se(NO4)2
mp-753171,0.5794,-2.587878871870476,3.3249293124277663,0.01473727357142707,-63.42881003,-4.530629287857144,Li2CuF4
mp-699466,4.0413,-1.2034997547340711,2.3022066954338185,0.017002026687505282,-499.65061569999995,-6.24563269625,ZnPH7C2N4O5
mp-19402,1.0722999999999998,-1.9760597806127451,4.592168538863267,0.0055343384706327825,-115.56181922,-6.7977540717647065,V4Ag2O11
mp-767888,,,,,,,
mp-567162,,,,,,,
mp-779720,3.9705,-2.481201311583333,3.630999558097341,0.03964637206250021,-450.2023709,-5.62752963625,Li5LaO4
mp-626568,3.8913,-2.072959517087143,2.472382509554508,0.060462207142854225,-325.69999072,-5.816071262857142,Al(HO)3
mp-850254,,,,,,,
mp-559798,4.9082,-2.2130228741266667,4.655344648617716,0.0,-26.19198138,-4.3653302300000005,NiF2
mp-764104,,,,,,,
mp-542704,4.4176,-1.6007744253102067,3.057541463411592,0.06638349350000272,-119.42844767,-5.9714223835,CsHCO2
mp-762613,,,,,,,
mp-582080,4.5826,-2.539770669585311,3.1595100658201773,0.0,-162.17210711,-4.05430267775,Cs3LaCl6
mp-559061,2.2077,-1.6714592159095834,3.9771044974124994,0.02650283805059539,-88.22191341,-3.67591305875,K2Hg2SCl4O3
mp-30243,3.7709,-2.4981388091377768,2.8528396484907104,0.017106139999998327,-101.47214446,-5.6373413588888885,Mg3(HO2)2
mp-763360,,,,,,,
mp-757218,1.681,-1.4342314719608509,2.833784386721817,0.0,-225.92799533,-4.806978624042553,K4Na2H18Pd(IO10)2
mp-767081,,,,,,,
mp-559251,1.2898,-1.0394035469857137,2.0612938823080404,0.03316113820193145,-405.36439483,-5.067054935374999,K3Cr2(PS4)3
mp-4452,2.1155,-1.0663377932142857,3.8195975278125047,0.0,-28.31870664,-4.04552952,Cd(GaS2)2
mp-754646,2.9732,-3.0597509562500007,7.6804056372646485,0.005988197272727369,-163.65103148,-7.438683249090909,Dy2Ge2O7
mp-774413,0.6776999999999999,-2.479374995060109,2.864703057218775,0.033686004338226994,-248.35636108,-7.304598855294117,MnV3(PO4)6
mp-771081,4.0903,-2.519917027061404,2.6291667109128007,0.09215956684210712,-266.14924354,-7.0039274615789475,Li3Ni(BO2)5
mp-735489,3.209,-1.6726766359847227,1.883813073964782,0.08206874034722134,-923.6022662,-6.413904626388888,KCaCrH10C6O17
mp-780534,4.0007,-0.3585783223651514,1.63872540859622,0.08474897492424205,-436.16425707,-4.956412012159091,Rb(BH)5
mp-30301,5.7447,-1.1173243766544438,2.3378078320658675,0.0,-107.39752786,-4.4748969941666665,LiClO4
mp-770427,3.955,-2.833978488757143,3.398936792830141,0.06274541928571598,-131.84832896,-4.708868891428573,BaLaCl5
mp-6441,4.4626,-2.7834864063587754,2.430654171603024,0.0,-165.10414056,-5.8965764485714285,K2PO3F
mp-745148,1.6651,-2.2141736063752755,2.9637079893514087,0.14559150965908876,-302.49093062,-6.874793877727273,MnP2HO7
mp-555056,1.6653,-0.8743828473190001,2.3452087173862526,0.05589876716199882,-35.29438584,-3.529438584,SbS2NCl6
mp-8870,3.4544,-2.3938424074999998,3.569512249668512,0.0014522791666635724,-167.61554223,-5.986269365357143,LiMgAsO4
mp-647427,,,,,,,
mp-566157,,,,,,,
mp-546679,1.0694,-3.0870385665900004,7.13518442711859,0.07659485392857235,-55.58060081,-7.94008583,Nd2AlNO3
mp-774133,,,,,,,
mp-7609,3.3125,-2.2151197558133338,4.8193333876237086,0.0009107589583337016,-65.76229782,-5.480191485,SbOF
mp-7863,1.2253000000000005,-1.7319156041071426,4.389300651468522,0.0,-34.80606374,-4.97229482,Rb2Sn2O3
mp-29626,1.6511999999999998,-1.0947718379999998,3.0932131368299105,0.0,-122.86254693,-4.095418231,Na4Sn3S8
mp-773779,,,,,,,
mp-11189,4.6770999999999985,-2.964092212083333,2.4843055729909884,0.0,-206.1341274,-6.44169148125,Li2MgSiO4
mp-780312,1.0736999999999997,-1.5791079560784302,4.122382528770072,0.4657379733823488,-186.59992286,-5.488233025294117,Li5(FeO2)4
mp-767952,0.9175,-2.0725925529942373,2.6059558182852465,0.12152272636364005,-303.80524548,-6.90466467,NaMnPCO7
mp-764974,,,,,,,
mp-756444,2.0821,-3.1605125961195237,3.579863389844447,0.07232960369332808,-180.34727156,-8.587965312380952,Ca2Ti6N2O11
mp-850087,,,,,,,
mp-766602,,,,,,,
mp-16135,2.2864,-3.0738474981249984,6.254284999238082,0.0041895683333397216,-341.8732257,-7.769846038636363,Sm3NbS3O4
mp-625616,4.2009,-1.2481778360771425,1.7492730935752137,0.008892010535713979,-261.00683229,-4.660836290892857,H9BrO4
mp-766801,,,,,,,
mp-770960,,,,,,,
mp-29292,3.3335,-0.16794016327797026,0.9206604172464184,0.005552952574728209,-902.18485416,-4.903178555217392,B10H13
mp-683943,1.6680000000000001,-0.4149722111983749,2.998299085654062,0.07075352039024363,-581.2275261,-7.26534407625,Na2MoC3SeN3
mp-642823,1.0648000000000004,-3.104642152613636,6.914925188016466,0.13900751818182222,-175.77001596,-7.98954618,Dy2V2O7
mp-3368,2.9482,-2.9908377293055564,4.7349251258484575,0.0,-408.27285789999996,-8.505684539583333,LiNb3O8
mp-25674,,,,,,,
mp-581425,2.0194,-1.1428337197569451,4.000432497669474,0.0006691971626984206,-252.65224481,-3.5090589556944445,ZnS
mp-540064,0.9591,-2.354724571441799,2.644090932728945,0.10530798763888337,-244.25882401,-6.784967333611112,LiCo(PO3)4
mp-764552,1.745,-1.957215705984848,3.2046982934450594,0.45550370756820596,-294.97465518,-6.703969435909091,LiFe2(BO3)2
mp-761300,,,,,,,
mp-554678,2.4562,-2.51118433703125,4.6619970381877565,0.013687545249997156,-105.10457607,-6.569036004375,CaGe2O5
mp-1020146,5.4471,-2.7922154963740087,2.212608132373167,0.0,-350.41876454,-7.300390927916666,Na2LiB5(PO7)2
mp-770125,3.8831,-2.8206796526857136,3.6128466789653015,0.07604425535714476,-131.47596155,-4.695570055357143,BaLaCl5
mp-557998,1.8039999999999996,-1.907756685989584,5.527437794728747,0.0,-141.09393429,-5.8789139287499985,Dy3CuSiS7
mp-774946,0.6480000000000001,-2.3842450632738093,4.3458569333908255,0.05143658732142331,-389.42385533,-6.953997416607143,Li2V3SnO8
mp-22967,0.3767999999999998,-0.8795123019047618,3.9135984177345318,0.15538220000000047,-24.99143502,-3.5702050028571435,Li2FeBr4
mp-763234,,,,,,,
mp-708992,5.3867,-1.4154303439632492,1.5916608692918328,0.056154444994319874,-435.89766188,-5.4487207735,AlH20C2S2NO14
mp-541519,,,,,,,
mp-765935,,,,,,,
mp-756812,2.1535,-2.2412034083928574,4.5600868430508905,0.005045489642856893,-143.73778913,-5.133492468928573,Rb3ErO3
mp-989565,4.4192,-2.8549966032140004,4.783113845624637,0.0,-44.42407782,-4.442407782,Rb2TlGaF6
mp-771452,,,,,,,
mp-23454,2.0607,-1.081547086566092,4.637018188308237,0.013649289687498456,-22.65594571,-2.83199321375,CsAgBr2
mp-567948,0.5428,-0.9152247916666664,4.304630335583116,0.010016488333334015,-24.9703025,-2.7744780555555555,Rb2Pd(IBr2)2
mp-6667,5.3171,-3.0966259185193437,3.050019015655288,0.005633826250001306,-180.28042179,-7.5116842412499985,CaBPO5
mp-14100,0.8489000000000004,-1.2317586635714284,7.137703229020575,0.0,-82.37638884,-5.884027774285713,Cd(RhO2)2
mp-779235,,,,,,,
mp-550805,1.4718999999999998,-2.4877521760325,8.571994466174443,0.0,-50.43231354,-6.3040391925,LuBi2ClO4
mp-32478,,,,,,,
mp-767220,,,,,,,
mp-23905,5.0249000000000015,-1.7493575015831884,1.935727913816516,0.010388957173919522,-133.01034168,-5.7830583339130435,KMgH9(CO5)2
mp-559088,2.9987000000000004,-3.0983349913888887,4.866890833432191,0.02653199083333302,-252.84439917,-7.0234555325,La2Si(IO2)2
mp-676121,0.3738999999999999,-0.21535466462500036,5.912215219934164,0.06260358399999966,-29.14271885,-2.914271885,Ag3SI
mp-764998,,,,,,,
mp-690703,5.2435,-1.8880580806666671,2.9965396573984053,0.02286530527777764,-171.47789237,-4.763274788055557,BaH4(ClO)2