id,band_gap,formation_energy_per_atom,density,e_above_hull,energy,energy_per_atom,pretty_formula
mp-7941,2.7662,-2.1391412251923074,3.3634813042267844,0.0,-67.87966679,-5.22151283,Li6TeO6
mp-767332,,,,,,,
mp-558539,4.3381,-2.464533885757004,4.114280061428808,0.0,-221.90517451,-6.9345367034375,Cs2Ba2(CO3)3
mp-773024,2.0135,-3.159023862447915,4.130578983930263,0.02958458229167072,-516.85119972,-8.075799995625,LiCa2Nb3O10
mp-766659,,,,,,,
mp-769365,2.0694000000000004,-1.3175366445572916,4.674877060632473,0.04915062249999913,-59.28650765,-4.940542304166667,ZnSeO4
mp-1175,1.0703999999999998,-1.5135903502604169,2.9603406689048497,0.0,-36.32562451,-4.54070306375,SrS3
mp-29936,1.1296,-0.7740930161111107,4.457199994417118,0.0,-92.99378648,-2.5831607355555555,Rb2PdI6
mp-777082,1.9098,-2.357650865317461,3.8386691151580026,0.08483544409721322,-245.97822577,-6.8327284936111115,TiNi3Sn2(PO4)6
mp-567034,,,,,,,
mp-760402,0.971,-2.4033014341666665,8.280272564518054,0.016063829166670374,-101.19751464,-8.43312622,TaRhO4
mp-761378,,,,,,,
mp-540949,3.4284,-3.2729375448611107,5.34814743866976,0.0,-229.90811243,-7.663603747666666,Ba3SrNb2O9
mp-16819,3.4731999999999994,-1.641896834,5.287729440332188,0.0007125000833339001,-202.79393689,-5.069848422250001,ZnTeO3
mp-763939,,,,,,,
mp-6880,4.6355,-1.9308088154362968,3.0503872270447747,0.07827399314814976,-338.99676995,-6.277717962037038,Sb2OsC6(OF2)6
mp-31578,,,,,,,
mp-764829,,,,,,,
mp-772141,2.5891,-1.67214372475,4.9325121450528435,0.025361998750000225,-144.65379787,-3.61634494675,Ba2LaI7
mp-28730,2.1903000000000006,-1.2295883560525,3.8846583313869334,0.0,-200.87943439,-3.13874116234375,In7Cl9
mp-27741,1.0294999999999996,-0.13849940416666706,6.725409275200956,0.0,-33.42675899,-2.7855632491666666,TeAuI
mp-567478,0.6263000000000001,-0.4532787013685343,5.256188693833441,0.0077023609999988816,-96.74339623,-4.8371698115,MnSbSe2Br
mp-19965,1.9881,-3.2201038853500004,5.629561824009133,0.03563234362500367,-155.58485998,-7.779242999,K4BaU3O12
mp-17323,0.7699000000000003,-2.8147351893627444,4.1511388517355154,0.016450873186270698,-264.87535777,-7.7904516991176465,TbCu(BO2)5
mp-756721,2.2507,-1.6442814224999995,7.393665102120713,0.030652582499998363,-155.45913714,-5.552112040714285,NaBi5O8
mp-697815,0.3403,-2.0777080467857143,2.6274294224129022,0.1890376239962208,-301.14692583,-6.8442483143181825,Cr(PO4)2
mp-752420,7.0439,-4.315177629467451,4.839770533880508,0.02023674352941729,-218.18736622,-6.4172754770588245,Ba3Y2F12
mp-998151,3.9908,-2.1787574729559998,3.7010696312814533,0.03873419799999933,-19.01645595,-3.80329119,CaTlCl3
mp-2653,5.229199999999999,-1.3781823153566661,3.452005153754451,0.09466673250000036,-34.77645492,-8.69411373,BN
mp-554704,2.8523,-2.7917811288676795,2.9644853089183365,0.0,-240.44260695,-7.5138314671875,TiPHO5
mp-510303,,,,,,,
mp-570610,2.4284,-0.5919804210256411,4.81821229201054,2.591730769219147e-05,-74.49210825,-1.910054057692308,CdI2
mp-755428,1.2271999999999998,-1.5934001069020003,3.2466225341185124,0.0,-65.63247679,-3.2816238395,Rb3ClO
mp-2983,3.9118,-1.0527811365470745,4.599594715150934,0.0,-623.09879111,-7.417842751309522,Ba(PN2)2
mp-29910,3.5856,-1.981067554810606,4.673423903612829,0.0,-83.87877595,-3.8126716340909095,Sr4I6O
mp-542115,1.9291,-1.0281096421582032,6.487252818734329,0.0,-140.61006091,-4.3940644034375,Hg3Se3O10
mp-19646,,,,,,,
mp-776918,,,,,,,
mp-776641,1.6497,-1.5242313369999998,2.8640001536836133,0.038776366249994254,-88.04081613,-4.4020408065,Na5CoO4
mp-554954,,,,,,,
mp-24934,,,,,,,
mp-690110,,,,,,,
mp-561424,6.9087999999999985,-3.67261750296,2.7491557638593744,0.0,-130.29552132,-5.428980055,KAlF4
mp-762453,,,,,,,
mp-4376,7.2832,-4.066412310492857,4.270763907791902,0.0,-164.92873401,-5.890311928928571,BaAlF5
mp-780745,,,,,,,
mp-9668,1.4486999999999997,-2.2367454150694446,4.028737320355567,0.003367883333333488,-102.2952468,-5.683069266666667,Ba3TiS5
mp-30292,1.3815000000000004,-1.812348585754584,6.382237576961023,0.0,-123.55277784,-6.864043213333334,Nd4Se3N2
mp-569168,0.6164999999999994,-0.9937171918750002,5.774009744742607,0.0,-185.95818724,-3.8741289008333335,Ba6NaCu3Te14
mp-769045,2.8758,-3.18058862875,7.475565026953161,0.018851521500002025,-217.50263004,-7.250087668000001,HoGaO3
mp-209,0.851,-1.8747071134062492,6.649373905542009,0.0,-115.9844784,-5.79922392,Er2Se3
mp-19172,2.0867,-2.3696817185833328,3.092399699547152,0.0,-171.42594366,-7.1427476525,KV3O8
mp-767572,1.7845,-2.7823518599873127,2.506739494761937,0.2239955006250005,-162.64107030000002,-5.082533446875,Li2MnF5
mp-19189,3.1769,-1.6435768593806812,3.7911360563612058,0.0,-116.00055382,-5.272752446363637,K2Co(SeO3)2
mp-24892,,,,,,,
mp-780440,3.1381,-2.4352485173044838,3.233819503473466,0.019689238958332744,-335.12934364,-6.981861325833332,Li8MnFe7(BO3)8
mp-25776,,,,,,,
mp-1018141,1.3754,0.17482021666666606,4.536489005341531,0.24122292777777865,-19.84804982,-6.616016606666666,BaC2
mp-766023,0.4177999999999997,-2.600436477741228,3.4107354580994316,0.06762867447368404,-259.6408698,-6.832654468421053,Li2Cu2Si4O11
mp-560936,3.9484,-3.1394967897140003,3.769107662105053,0.0,-50.83160732,-5.0831607320000005,Rb2NaCrF6
mp-769073,2.3310000000000004,-2.9987554821106817,2.8300313793636955,0.013767705174773326,-277.29374247,-7.4944254721621615,Na2LiTi3Al(PO4)6
mp-559068,1.6001,-1.414007252668269,3.5374297750448416,0.0,-67.14017394,-5.164628764615385,Na2Pd(SeO4)2
mp-603613,,,,,,,
mp-540311,,,,,,,
mp-560098,1.905,-1.8465322024999995,6.251739991325008,0.0011568762499978293,-145.27941704,-6.053309043333333,SbO2
mp-28395,2.5139,-0.2902398047959188,2.5888852804337645,0.0,-95.04261669,-6.788758335,B6P
mp-765721,1.7909000000000002,-2.275044776333333,3.5473732235247057,0.09445051495555834,-191.08191185,-6.3693970616666675,Na4V3O8
mp-569346,1.2172,-0.14442310749999976,5.746819369812244,0.009151727499999929,-11.8241239,-2.956030975,CuI
mp-17650,2.5331,-1.3786528732499999,2.7785457473867115,0.0,-132.79264075,-4.1497700234375,KGaS2
mp-632692,0.7441999999999998,-2.435742537238095,3.438508564027414,0.02577101459999387,-175.33146539,-7.0132586156,LiFe4(PO4)4
mp-769460,0.16310000000000002,-1.9598772653103933,4.115019307026265,0.0,-363.41246877,-6.489508370892858,Li9Mn12Ni3O32
mp-560468,2.6902000000000004,-1.8721134192857147,4.001764271435217,0.0,-161.63982418,-5.7728508635714295,Pr3Si2S8Br
mp-775335,0.5439000000000003,-1.8787485005952371,4.118465639978903,0.3311684312301537,-185.48417583,-6.624434851071428,Li2Cr3FeO8
mp-28534,3.1474,-1.5069498550000002,3.8629472072843822,0.0,-34.39335072,-3.439335072,CaInBr3
mp-3731,3.3379000000000003,-2.908694976083333,4.412866665843731,0.0,-78.58139836,-7.858139835999999,LiNbO3
mp-704123,,,,,,,
mp-569267,0.32759999999999945,-0.7910896615000006,4.788552715852876,0.0,-68.47430291,-3.4237151455,Ca2CdSb2
mp-761479,,,,,,,
mp-759882,3.7553,-0.8906525561317944,2.011015956205639,0.07668245546628594,-329.59167353,-6.338301414038462,AgBH8C4(N2F)4
mp-16795,7.1355,-4.053977115135715,2.8540860846646066,0.00324066928570943,-164.90251616,-5.889375577142857,CaAlF5
mp-541569,2.1585,-1.0696023310353333,5.170633892851784,0.0,-253.87768163,-6.34694204075,Sr2Li3TaN4
mp-673023,4.8102,-2.546980558941798,3.588862270080776,0.03123394083332265,-496.96847346,-6.902339909166668,LiBi(PO3)4
mp-583553,2.6067,-1.3755204406257149,3.791334468651056,0.0,-460.90497327,-5.4869639675,Mo6PbCl14
mp-756912,2.972,-2.382686841875,3.4091729577300782,0.047289163749999474,-147.52356623,-6.146815259583334,LiZnBO3
mp-604459,5.115,-2.361134699534035,1.9740229934108129,0.009575998662286091,-1012.53522743,-6.661415969934209,Li2B4H4O9
mp-557900,3.8004,-2.0565245841325,2.7427101574423816,0.03576153066812626,-243.65102643,-4.35091118625,SbCSCl2F9
mp-560297,3.8065,-3.2055248131770826,4.988127857962748,0.0,-264.25046655,-8.2578270796875,LiTaSiO5
mp-16184,1.7001,-0.5195001016429924,3.6827419581528735,0.0,-91.01146178,-4.136884626363637,Rb2B2Se7
mp-505815,1.0820999999999996,-1.5846241359132542,5.344621501471157,0.0,-83.0545245,-5.19090778125,CsLa2CuSe4
mp-766881,2.3623,-1.3052796858402622,2.61285832406696,0.021489230789474508,-189.86424856,-4.99642759368421,H7SIO10
mp-778894,,,,,,,
mp-569813,0.2852999999999999,-0.3053380745238096,5.499755661737336,0.0,-46.01208819,-3.2865777278571433,In5AgTe8
mp-42160,,,,,,,
mp-768048,,,,,,,
mp-552056,2.9001,-1.5903034411519996,5.5747433812316345,0.050572914750003584,-61.27211698,-6.127211697999999,PbCClO2
mp-672339,0.7246999999999999,-0.13214565674948228,6.950177900717853,0.0122724585797096,-63.28015264,-2.751310984347826,Ag2Hg7(P4I3)2
mp-777434,,,,,,,
mp-684503,4.2059,-2.5131318615093536,3.3189271290312914,0.037802678875004325,-382.14364279,-6.82399362125,LiSn(PO3)3
mp-753649,4.1610000000000005,-2.7641159435443727,2.5080631521240297,0.05386230227273714,-170.44322565,-7.747419347727273,LiZrPCO7
mp-769036,1.085,-1.4529307836293868,2.563378396043744,0.040218184605271816,-377.34634639,-4.965083505131579,Li8Nb2S9
mp-565335,,,,,,,
mp-3503,3.0589999999999997,-0.9231027954109084,4.197507863121574,0.0,-132.75136618,-6.034153008181818,Li6WN4
mp-8177,0.9684,-1.7261636041266668,8.773296393934064,0.0,-8.3232201,-2.7744067,HgF2
mp-634434,4.0009,-0.4658179226759998,1.7395380375589695,0.03548914199999853,-128.0510539,-6.402552695,NaHCN2
mp-561356,2.1521,-3.0183023420896373,4.502548410029063,0.0,-417.50403394,-7.4554291775,Cs2UP2O9
mp-25793,,,,,,,
mp-772417,1.0027,-2.160560991666667,4.068198802941079,0.077388693541665,-186.94460039,-6.6765928710714295,Li4V3Fe5O16
mp-643,4.4404,-4.3779871975,9.884016859248993,0.0,-29.03915078,-9.679716926666666,ThO2
mp-770483,,,,,,,
mp-769533,1.295,-2.4548571028648642,2.6928042385554853,0.1183935443611306,-252.35667219,-7.009907560833334,LiMn(PO3)4
mp-770063,,,,,,,
mp-600154,0.7675,-1.5395297177762968,2.043386546019266,0.07312326370370315,-323.32053028,-5.987417227407407,K2CuH8(CO3)4
mp-765923,,,,,,,
mp-763382,,,,,,,
mp-24058,3.0439999999999996,-2.214494491935185,3.2593563489899853,0.0,-366.79767562,-5.094412161388889,AgBH2OF4
mp-754184,3.5637000000000003,-3.70478573175,6.833301108126457,0.0856142044499908,-79.14785139,-7.914785139,ErAlO3
mp-5679,3.0437000000000003,-1.943722488854166,4.432825353247825,0.010591187500001098,-66.04837891,-5.5040315758333325,CdSO4
mp-14001,0.9853,-1.0002500166666668,4.747380480650666,0.0,-325.88445092,-4.526172929444446,Ba4SiAs4
mp-758070,0.32259999999999955,-1.8403631375297616,4.324635506663221,0.11201284812500224,-47.22618903,-5.90327362875,LiCu2PO4
mp-760690,2.6376,-1.9755145887222227,3.201119042031415,0.08711224866666534,-73.5213954,-4.90142636,Li8TeO6
mp-628951,1.6512,-2.585318151607141,3.2782413412433296,0.016075993653856813,-389.78963701,-7.495954557884616,V2P2O9
mp-635322,,,,,,,
mp-675426,5.8711,-4.2064166969776915,5.097638740109924,0.053882093461540485,-78.0061799,-6.000475376923077,Ba3PrF9
mp-19654,,,,,,,
mp-773772,,,,,,,
mp-756432,1.5033,-1.9261556421296298,4.783024482772912,0.023841000277779575,-106.76158852,-5.931199362222222,Li2Ti(TeO4)3
mp-771601,,,,,,,
mp-559702,3.0577999999999994,-3.436872521943847,6.936018130036298,0.0,-110.18405587,-8.475696605384616,Pr2Ta2Cl2O7
mp-558226,5.556800000000001,-1.3554836967188888,1.3390329755573291,0.03322158777777684,-177.49907858,-4.930529960555557,H2O
mp-775236,,,,,,,
mp-770054,,,,,,,
mp-763194,0.4949999999999999,-2.427105562005789,3.1118772133898087,0.08072716027271376,-164.80314154,-7.4910518881818176,LiMn2(BO3)2
mp-558831,0.6590000000000003,-2.287051173625,5.7698145700802215,0.016125034479167688,-75.02866509,-6.2523887575,KNdPdO3
mp-23803,3.0004,-1.9297383402799992,5.184996839692157,0.015349849999999774,-44.95622176,-5.61952772,GaHO2
mp-25742,,,,,,,
mp-623087,1.1555,-0.29189540941176434,5.78164233659241,0.013411282729239636,-151.51479161,-4.456317400294118,Re3(TeBr)7
mp-540275,,,,,,,
mp-757325,0.2422000000000004,-2.81738875265306,3.008247465937525,0.07410321781462326,-195.71431882,-6.989797100714285,Li3Ti(PO4)2
mp-769287,2.2506,-2.0668208872222227,2.2800698487409803,0.031752053456790115,-141.22187629,-5.884244845416667,Li2TiS2O
mp-566722,,,,,,,
mp-771561,,,,,,,
mp-18901,1.2266,-1.4140774097619049,6.636389086335331,0.02655192738095113,-74.83543598,-5.345388284285714,VAgHgO4
mp-764351,,,,,,,
mp-705308,,,,,,,
mp-770703,2.4585000000000004,-2.07092160074074,4.888881114411697,0.07746627972222253,-235.02934451,-6.5285929030555545,LiSbWO6
mp-559257,1.4215,-1.1576580954166666,5.936118053469901,0.0,-196.00893496,-4.900223373999999,AgTeO3
mp-24993,,,,,,,
mp-773273,,,,,,,
mp-36223,1.9463000000000004,-2.419714908214285,5.154568391668098,0.0203547757142859,-84.62146589,-6.0443904207142864,Ba(PrS2)2
mp-14216,2.6963,-1.9185449005592097,7.161863009995197,0.0017989684292727406,-878.8068255000001,-5.781623851973684,Ga8(Pb3O7)3
mp-778823,,,,,,,
mp-558042,1.6883999999999997,-1.8209915155729164,5.321498588312644,0.0,-136.81475267,-5.700614694583333,Sm3CuSnS7
mp-5488,1.8353,-2.0708565747916663,5.599078750192086,0.0,-42.87072764,-5.358840955,LiInO2
mp-773342,,,,,,,
mp-27484,0.5714000000000001,-0.8257053037499998,9.413254050748108,0.0,-22.89217444,-3.815362406666667,Tl2O
mp-777149,,,,,,,
mp-558198,3.7887,-2.15277616125,3.403112077965188,0.0,-144.85608474,-5.571387874615384,Na2Cd(SO4)2
mp-17894,2.1861,-1.4467166369982998,2.9857523566719246,0.0,-133.04761654,-4.751700590714286,Rb3Sm(PS4)2
mp-768005,,,,,,,
mp-25105,,,,,,,
mp-763890,,,,,,,
mp-505121,1.3273,-0.778907703611111,5.652292846700079,0.0,-97.74984748,-2.7152735411111117,Na2Hg3S4
mp-5065,5.403199999999999,-3.36528317515625,3.5479353515493144,0.01934658906247222,-244.26054024,-7.6331418825,Al2SiO5
mp-769604,1.0979,-2.3365312024113845,2.546360071440166,0.0,-328.39897042,-6.841645217083332,K2MnPCO7
mp-774749,4.3086,-2.666512490347221,2.6615470587419114,0.0,-223.32958584,-6.203599606666668,RbNa3Li12Ti4O16
mp-24354,4.2222,-1.1361835143692185,2.643831736793464,0.04804597993670345,-325.10152326,-5.0797113009375,H7Se2NO6
mp-24982,,,,,,,
mp-643702,2.7492,-0.29062175465478923,3.6264976485789573,0.0024364361111106625,-45.51989364,-2.52888298,Cs3ZnH5
mp-570530,3.2599,-1.2285493423070024,2.1461132721601257,0.0,-257.86397413,-4.958922579423076,Cs(BCl)6
mp-19310,2.4782,-1.1782991254218174,2.4453389419562366,0.06383686099430808,-133.75638632,-6.079835741818181,Na3Co(NO2)6
mp-540164,,,,,,,
mp-14817,5.3923,-2.834208392142858,3.1715804383244306,0.0,-591.88325143,-7.398540642875,PrP5O14
mp-24341,3.2314000000000003,-0.1926008707582067,2.114916201612249,0.0,-30.63405915,-3.063405915,CsBeH3
mp-762307,4.0498,-3.9871840891666666,5.331805145757102,0.0008937496562584357,-361.07319775,-9.02682994375,Y7HoO12
mp-32531,1.5279000000000005,-2.8267597347321423,4.32637657058801,0.00730814749997144,-207.64927135,-7.416045405357143,Ba2V3O9
mp-865136,,,,,,,
mp-554185,5.6723,-3.1167586795535716,1.4487518823614247,0.01422906604166574,-717.4732102999999,-7.473679273958332,AlPO4
mp-720712,1.7647,-0.6342591666657891,2.2079588813928237,0.0,-394.61180006,-5.192260527105264,Cr2H24(IN3)3
mp-16929,3.0137,-1.4919042548089991,4.875668842385403,0.0,-328.39664105,-8.209916026250001,Pr3Si6N11
mp-2898,1.5976999999999997,-1.4758264949999995,8.682317235569721,0.0,-71.72134631,-5.122953307857143,Ca(AuO2)2
mp-868136,,,,,,,
mp-759926,2.9523,-2.9148965209090902,2.523001471410728,0.043340081850649526,-330.43813749,-7.509957670227273,Li2Ti(BO3)2
mp-621092,2.572,0.031723076861817905,5.408676737097824,0.061269974372526015,-158.32445547,-7.196566157727273,Tl2Pt(CN)4
mp-5777,2.3014,-3.5010297867499998,5.713375485281336,0.000473180000000184,-40.05616901,-8.011233802000001,BaTiO3
mp-557016,2.2668,-1.045811796520982,2.3355035552788856,0.006901869114581238,-154.70220711,-4.8344439721875,TaP4S6Cl5
mp-541416,,,,,,,
mp-698690,3.1211,-2.363870576354168,2.6552631862172253,0.6661360196527769,-307.70060867,-6.410429347291667,NaCaGaSi2O7
mp-34011,2.1913,-2.437439260357143,5.6801780499613095,0.04076602999997636,-84.23662953,-6.016902109285715,Ca(HoS2)2
mp-764512,1.4409999999999998,-2.369810348222221,3.2423853313195625,0.044593772772231866,-317.40755264,-7.053501169777777,Li5Fe8(BO3)8
mp-11738,2.8296,-1.5668591598995532,2.0960024528846004,0.0,-73.09892645,-4.568682903125,Na3PS3O
mp-566059,,,,,,,
mp-761652,,,,,,,
mp-505001,3.593,-1.508626158055555,3.512321350198732,0.0027431687962993227,-103.85332378,-2.8848145494444437,Rb3ZnBr5
mp-763997,,,,,,,
mp-762501,3.4994,-1.4676754111295245,1.8049836831956123,0.019775461190477017,-468.40055489,-5.5761970820238105,CaH8(NO5)2
mp-773192,3.2221,-2.177069499117647,7.123254466201952,0.5574093983823527,-283.863582,-8.348928882352942,Gd2(WO4)3
mp-24741,3.8476,-1.6258293903775,1.9176727204078223,0.0,-163.08935732,-5.09654241625,ScH3NCl3
mp-7703,4.003,-3.747308290833333,8.959121417518125,0.0,-111.86215148,-9.321845956666666,DyTaO4
mp-767978,,,,,,,
mp-755026,0.9707999999999996,-2.381368837613637,8.633050467496723,0.0,-155.85709025,-7.084413193181818,La2Pt2O7
mp-603959,,,,,,,
mp-642740,1.9975,-0.5968912979797121,2.7474600757786884,0.0,-109.33003989,-4.55541832875,CsLi(H2N)2
mp-26675,4.251899999999999,-2.5002230583862435,2.8382567460405195,0.031988683333339374,-494.57226624,-6.869059253333332,LiSb(PO3)4
mp-556047,0.5216999999999999,-1.0465653852249992,3.8137901328494577,0.0,-182.28341674,-4.5570854185,K2OsCBr5O
mp-770185,,,,,,,
mp-557103,3.4890000000000003,-2.571266638010392,4.8692091407249185,0.0,-495.99402139999995,-7.294029726470589,B5Pb2ClO9
mp-530953,2.2482,-3.7828387782812487,7.2853992709368285,0.12110246406250093,-548.4072652000001,-8.56886351875,Ho2TiO5
mp-570791,1.9887,-0.2053835519736837,3.1716171226691188,0.0003041710263165242,-286.157624,-7.530463789473684,SiC
mp-1565,3.1343,-3.7549080208333336,5.992210611893609,0.06890302083333387,-28.30375563,-9.43458521,ZrO2
mp-541750,5.4829,-1.9324578503941037,2.764563959663965,0.07311533545366622,-219.76877976,-5.494219494,CsS2N(O2F)2
mp-540578,4.5412,-2.0336838927002963,3.1586511728533115,0.0,-89.20582602,-3.185922357857143,Cs2ZnCl4
mp-6037,3.6054,-3.049988053583333,6.657959379568943,0.0,-68.65849707,-6.865849707000001,Ba2SmSbO6
mp-774245,0.4973000000000005,-1.9539693733920496,4.564602834138012,0.02793527687499875,-152.02379005,-6.334324585416668,Li5Mn5(NiO6)2
mp-541025,4.4162,-1.7864907443930318,1.852637768541609,0.017199163415302362,-672.86242103,-5.5152657461475405,Ca3SiH30CSO25
mp-754211,3.788,-3.6076463745238083,5.143620976796953,0.04749594232142762,-107.59536392,-7.685383137142857,SrLa2O4
mp-540439,1.0509,-2.4797175655830355,2.7308714804531933,0.037301201153844936,-188.33606295,-7.2436947288461555,Mn(PO3)3
mp-32327,,,,,,,
mp-554819,3.5985,-1.9262371687009063,1.8349756105335453,0.0,-203.42704497,-4.843501070714286,MgP4(Cl5O3)2
mp-758829,4.2126,-3.3377802191609103,3.0157213337874884,0.013326783181815571,-290.11303612,-6.593478093636364,Nb2OF8
mp-553907,1.5831,-1.1346697552430554,4.213513820604493,0.0,-337.17569189,-3.512246790520833,Rb3AgO2
mp-867334,2.4167,-1.6293036834047625,2.9935641409473983,0.0,-74.98214097,-5.355867212142857,KYGeS4
mp-767636,0.3914000000000004,-1.8911028239767171,3.9175648370430816,0.4663903899107256,-177.06360719999998,-6.323700257142857,LiMn2O3F
mp-17037,3.1411999999999995,-3.144598286749998,3.4603898024888267,0.0,-223.01251294,-7.4337504313333325,Rb2Ti(SiO3)3
mp-770686,2.1221,-2.568767858801264,2.956337711604752,0.21518846937499614,-307.99193463,-6.416498638125,Li3MnAl2O6
mp-18469,5.3660000000000005,-3.1318579659902612,3.255149371375584,0.0,-313.1321792,-7.116640436363636,SrMgP2O7
mp-777151,3.6264,-2.375227898999667,2.890717492158521,0.4846197005000024,-94.15529372,-4.707764686,LiFe2F7
mp-772684,,,,,,,
mp-569876,,,,,,,
mp-11606,1.0414999999999996,-1.9896064250624999,5.120296350960068,0.0,-88.36646845,-5.522904278125,KHo2CuS4
mp-541762,,,,,,,
mp-1019740,3.710900000000001,-0.8720270693150001,4.518840734910881,0.3996925387500001,-61.85236715,-7.73154589375,GaB3N4
mp-758731,3.7454,-2.537450681045918,3.967837623423472,0.08085645053571433,-359.71755979,-6.423527853392858,Li3Bi(PO4)2
mp-557130,3.6543,-1.6242197453462497,3.823934327794992,0.0,-271.2054277,-4.2375848078125,Zn2TeCl2O3