id,band_gap,formation_energy_per_atom,density,e_above_hull,energy,energy_per_atom,pretty_formula
mp-772856,0,-0.746252182,8.518809783,0.056113976,-15.84082183,-3.960205458,CuHgO2
mp-12627,0,-1.478631952,4.898841353,0,-109.0950306,-7.792502189,Nb3S4
mp-1004525,0,-0.227888214,4.332309412,0.017506547,-87.82121501,-6.755478078,SmB12
mp-504348,0.0189,-2.361448481,2.662757443,0.053259969,-175.0287984,-6.251028513,Li3Cu(PO4)2
mp-22268,0,-1.125735764,7.963822914,0,-106.4021709,-8.866847573,ZrPRu
mp-28232,2.7179,-3.446303573,3.551494458,0,-132.2021884,-8.262636776,MgTi2O5
mp-17569,2.3831,-2.934593925,5.77175715,0,-188.5134971,-5.23648603,SmPtF7
mp-780137,0.7046,-2.488166168,3.138522866,0.035526461,-340.5928498,-7.404192388,Li3Mn4(BO3)4
mp-22880,0.4403,-0.441277787,4.536917828,0,-13.04169379,-4.347231263,2-Feb
mp-559264,0,-1.337241476,8.218740417,0.086269537,-78.48196583,-5.605854702,Bi2PdO4
mp-1020010,0,-0.667973734,2.597021342,0.037811685,-259.5414956,-5.898670354,Li2Ca3N6
mp-757303,2.5823,-2.650592229,3.802926813,0.005756301,-336.1886035,-6.112520064,Mg17(As3O16)2
mp-1019094,0,-0.827072277,9.724560267,0,-30.32253224,-5.053755373,PrGeAu
mp-556020,7.9151,-3.494140602,2.689778352,0.005413737,-211.7469118,-5.293672795,Li3AlF6
mp-733604,3.0524,-0.450769223,3.083206947,0,-95.64219432,-3.188073144,Ba2Mg3H10
mp-707337,1.7662,-0.287044956,2.439933176,0,-161.9013567,-2.891095656,K3H3Pd
mp-556995,3.6443,-3.775104908,6.973254772,0.028304723,-123.2548838,-8.216992251,Nd2O3
mp-767710,2.455,-2.614155427,2.874281435,0.097277962,-331.9500432,-6.9156259,Li2VP2O7
mp-1013586,0,-0.683904273,3.843395112,0.346223163,-19.25093844,-3.850187688,Ba3AsP
mp-4906,3.2947,-1.729638908,4.305945923,0,-113.2610884,-5.663054422,Te2SO7
mp-644143,0,-0.780575011,9.033466198,0.021298586,-39.15441129,-4.894301411,LaSb2Au
mp-22344,0,-0.208700484,8.847102779,0,-115.9016886,-5.795084431,Sn7Ru3
mp-867625,5.7551,-2.469256327,3.890373305,0.005731,-312.7135296,-6.514865199,ErH(SO4)2
mp-22731,0,-0.087028626,8.613858532,0.038350879,-23.81573506,-5.953933765,MnInNi2
mp-997030,0,-1.89029669,5.521661645,0.030679732,-20.84498551,-5.211246378,CaAgO2
mp-757457,1.6303,-3.266635116,4.895831089,0.050780323,-231.5400045,-8.90538479,LaNb3O9
mp-540862,7.1835,-4.06368537,4.054001094,0,-232.2268654,-5.805671635,Ba2CaMgAl2F14
mp-675585,0,-1.15280337,5.759735275,0.206337653,-179.1906638,-8.959533188,Ti7Co3N10
mp-4093,0,-1.88291117,4.150499624,0,-81.40663224,-6.262048634,Cu3(PO4)2
mp-560058,2.5912,-2.693568133,2.867652162,0.009535491,-648.1859873,-6.614142728,Li9Ga3P8O29
mp-17850,3.6675,-2.976911007,5.29927594,0,-161.1412709,-6.714219622,K3NaTh2O6
mp-13055,3.5873,-3.528136276,6.912438717,0,-81.2710899,-8.12710899,Ba2LaTaO6
mp-30885,0,-0.286979137,6.674757856,0.003527185,-14.5533931,-2.425565517,YZn5
mp-295,0,-1.529549955,8.16619749,0,-12.28500344,-6.14250172,HoAs
mp-866662,4.661,-3.334836353,4.276569877,0,-216.0475902,-7.201586339,K5La4Si4O16F
mp-560478,4.8154,-3.614234236,4.126754718,0,-262.4544263,-8.201700821,BaY2Si3O10
mp-13898,5.3058,-3.01847261,4.614276407,0,-44.58906687,-4.458906687,Cs2NaInF6
mp-754730,3.0182,-1.587129424,3.348857176,0.09448214,-77.14144663,-3.214226943,SrCaI4
mp-16695,4.129,-2.61703462,2.878909075,0,-301.2096238,-6.275200495,K2ZnP2O7
mp-28630,1.6516,-0.626564159,2.118291419,0,-121.432242,-5.05967675,Na3BN2
mp-626094,4.3404,-2.097053359,2.440235906,0.041617166,-326.607458,-5.832276036,Al(HO)3
mp-770932,2.6387,-2.137971664,4.827453839,0,-58.80884553,-5.880884553,LiSbO3
mp-29342,1.8419,-2.266744224,2.293531856,0,-31.04544123,-4.435063033,Ca3PCl3
mp-5399,0,-0.676199558,7.207609916,0,-35.77875855,-7.15575171,Tb(FeSi)2
mp-984756,0,-1.346923592,4.308677442,0.465485096,-21.91358855,-4.38271771,CsMgO3
mp-27987,3.4387,-1.346424349,2.87690671,0,-33.62062309,-2.801718591,BrF5
mp-558270,2.2857,-0.637451065,1.73816317,0.107842752,-603.2778134,-5.027315112,AlS5N5Cl4
mp-558572,0.4131,-3.569066262,5.543814042,0.014198124,-109.2301929,-6.068344048,Na2UF6
mp-630875,0,-0.526418597,8.576819405,0,-118.2826208,-3.285628356,Ca2In4Au3
mp-540530,2.8598,-2.552521628,2.706352609,0.02894643,-129.9060103,-6.837158434,Li2Co(PO3)4
mp-7376,0,-0.515535674,4.086254691,0,-24.17591105,-3.453701579,Sr3(AlSn)2
mp-4626,4.1712,-2.682902585,2.838037898,0.024280725,-149.2861075,-7.464305375,CaCO3
mp-675545,0,-2.651153862,6.511582972,0.120440934,-89.69304721,-4.982947067,TaHg2F6
mp-758179,0.4882,-1.859394411,4.338355866,0.112200312,-94.59433518,-5.912145949,LiCu2PO4
mp-849538,0,-2.2293735,4.434330842,0.073489757,-121.6867747,-6.760376371,Mn6O7F5
mp-29887,4.8828,-1.117267189,3.141312464,0,-154.2769834,-4.821155732,Pr(ClO4)3
mp-540636,3.1048,-2.682995388,4.757254303,0.011199466,-138.4608567,-5.769202362,WOF4
mp-976368,0,-0.806517812,7.139942566,0,-48.33268242,-5.370298047,NdAlPd
mp-755165,4.4324,-3.961922734,4.794330429,0.027909851,-181.1551218,-9.05775609,YScO3
mp-974933,0,1.23592768,2.503241188,1.23592768,-8.96822975,-2.242057438,Rb3Mo
mp-775201,0,-2.2937976,2.778036939,0.062796331,-240.4797915,-7.072935045,Cr3Fe(PO4)6
mp-778715,3.0471,-2.948980926,3.482895577,0.086737631,-380.4749516,-5.944921119,LiMn2F5
mp-554648,0.0171,-0.53622038,7.370315744,0.00599781,-94.91112562,-3.954630234,Ag5IO6
mp-1018148,0,-0.819011338,12.93585583,0,-15.33681433,-5.112271443,ScAu2
mp-756131,3.6484,-1.666193221,3.778368218,0.02638378,-58.96099189,-3.275610661,Sr2CaI6
mp-28170,0,-0.324284457,5.991203667,0,-262.364509,-5.465927271,Ca5Ni15B4
mp-541853,0,-0.269993297,9.890774713,0,-219.7976388,-7.579228922,U2(Co7B2)3
mp-560086,1.9759,-1.664315484,4.458491735,0.0010341,-212.2472751,-5.585454607,Nd4(GeS4)3
mp-1017511,0,0.261622563,7.666191496,0.261622563,-36.3234522,-9.08086305,Cr3Fe
mp-12382,0,-0.824669088,7.31265932,0,-48.98995671,-6.123744589,ErSi2Ni
mp-631535,0,0.869164504,12.68008862,1.612254106,-27.42594571,-6.856486428,BeW2Cl
mp-21540,0.1578,-3.373007493,2.727678945,0.012171394,-335.2465262,-5.587442104,Li3TiF6
mp-34263,0,-1.93586596,5.182082391,0.02536296,-111.5439951,-7.967428223,Mn2TcO4
mp-561216,0,-1.609685184,4.71094692,0.031291663,-471.1953595,-5.889941994,CuGeO3
mp-978596,0,-1.75481028,10.15065849,0.642929479,-52.90530995,-5.878367772,Sm2Au2O5
mp-1014111,0,0.597285405,2.852157794,0.597285405,-20.7238843,-5.180971075,Ni
mp-973443,0,-0.401635389,15.21934277,0.034280666,-44.31733124,-11.07933281,Hf2ReTc
mp-977445,0,-0.469027338,9.665039605,0.056332556,-21.54295421,-5.385738553,Nd2ZnIr
mp-976587,1.5454,-0.810803679,2.894715469,0.006285249,-96.74662973,-4.397574079,KP2AuS7
mp-541193,0.9253,-0.617539769,8.568749446,0,-98.89303164,-2.060271493,Hg7Cl2O3
mp-1018720,0,-0.730460497,8.891444731,0,-53.30026361,-8.883377268,HfVSi
mp-754840,2.712,-2.59226459,6.620652365,0.054823345,-97.92509438,-8.160424532,TaAsO4
mp-131,0,0,6.446093997,0,-17.09504392,-8.54752196,Zr
mp-20451,0,-0.983825695,10.18845037,0,-50.06026756,-5.562251951,LaInPt
mp-557109,3.725,-2.630033596,3.755106439,0.011934615,-284.5291529,-6.77450364,Na4Zr2(GeO4)3
mp-11826,0,-0.373400717,8.542682119,0,-30.13340885,-5.022234808,CaPd5
mp-570595,0,-0.618376054,8.85983065,0,-81.76030631,-8.176030631,DySiRu2C
mp-542881,0,-0.439256139,7.907965143,0,-55.06954608,-5.006322371,Ce3(CuSn)4
mp-559918,0,-1.511865015,3.845323426,0.02140735,-177.3371049,-6.333468033,Ti2CuS4
mp-23093,1.7043,-2.806338778,6.449072966,0,-130.9066523,-6.545332616,Sr2NdBiO6
mp-560611,1.6603,-1.708238762,5.875923851,0.001153581,-89.7565847,-5.609786544,HoCuS2
mp-19156,1.9174,-2.477451538,5.508618033,0.007205881,-68.93899207,-6.893899207,BaMnO3
mp-28006,0,-0.345574074,6.514893348,0.004712979,-30.11416588,-4.302023697,Ca(Cu2As)2
mp-998308,0,-1.609382672,4.117894982,0.101521583,-20.16188481,-4.032376962,CsScBr3
mp-540645,0.6193,-0.8066319,7.787038335,0.004059634,-140.1442159,-2.502575284,Hg3(ClO)2
mp-2694,0,-0.498331584,4.744791736,0,-27.83558529,-4.639264215,LaAl2
mp-768451,0.0295,-1.593013993,3.190511313,0,-192.7801207,-5.670003549,Cu2(SO4)3
mp-553432,3.4458,-3.472373468,2.377210708,0.051005997,-80.30123442,-8.92235938,TiO2
mp-562613,5.5339,-2.448696225,2.120936608,0.01277095,-196.3701529,-7.013219747,P2O5
mp-31436,0,-0.773740922,8.620760569,0,-88.58425095,-5.536515684,TbGe2Pd
mp-556524,0.8703,-2.476425068,5.706504125,0.091677606,-170.1413106,-7.733695938,Nb2Sn2O7
mp-1016884,0.518,-2.599661773,4.928536727,0.170908428,-32.30259544,-6.460519088,CaGeO3
mp-753108,0,-3.078391056,7.298857717,0.181907329,-113.428015,-7.089250935,Yb2TiO5
mp-541595,0,-0.140807125,14.61648351,0.061791348,-276.5879338,-9.878140492,Co3W3N
mp-642821,3.1441,-0.429739841,3.278352828,0.011139454,-58.90834749,-3.272685972,K3H5Pt
mp-699375,0,-1.502388768,5.267039281,0.045048891,-164.0186198,-6.074763694,Co8As3O16
mp-4960,0,-0.430336306,6.235593648,0.087319626,-43.08483954,-4.787204393,Li(PrGe3)2
mp-7575,0.5083,-0.389164779,4.770475644,0,-12.300766,-4.100255333,LiZnN
mp-626620,3.3341,-1.562079543,3.315924611,0,-26.3378459,-4.389640983,RbHO
mp-753445,2.9511,-1.991628172,4.619576789,0.024679152,-124.780942,-5.671861,Sb4O5F2
mp-558016,3.7526,-2.910370785,3.629150547,0.000305709,-99.72729736,-6.232956085,CaMgAsO4F
mp-557989,1.1988,-1.995514657,4.706792821,0.017643476,-508.1554768,-5.774494054,K3Sb5O14
mp-541164,1.7852,-1.146260619,8.294505836,0.012516015,-244.3775641,-4.213406278,Hg9(AsO4)4
mp-24112,4.845,-1.743943204,2.512321706,0,-324.6872415,-5.236890992,Rb2ZnH12(SO7)2
mp-5850,0,-0.89186738,10.71067146,0,-22.50056206,-5.625140515,ErSnPd2
mp-2323,0,-0.097610515,6.201944864,0.01129559,-8.02401381,-4.012006905,BeCu
mp-571608,0,-0.376579529,8.709899682,0,-24.25351674,-2.425351674,Yb3Ag2
mp-4212,0,-0.584396019,7.469215447,0,-227.4212506,-8.12218752,Nb3Co4B7
mp-645172,1.3899,-0.479949299,4.370427212,0,-188.3141406,-3.923211262,CsAs2Se3
mp-797,0,-0.894265385,11.36798554,0,-23.71693129,-5.929232823,DyPd3
mp-12383,0,-1.227610857,5.171559821,0.021725813,-112.9214951,-5.646074757,Sc2Te3
mp-767568,0,-2.396126683,3.216268734,0.066187544,-258.1869324,-6.978025199,Li3Mn4(PO4)6
mp-24277,3.2754,-2.50691254,3.132851564,0.023570824,-478.5101125,-7.036913419,KGdP2H4O9
mp-16992,0.9287,-0.569895387,5.490070416,0,-80.69052655,-3.362105273,NaAg3S2
mp-570227,6.6628,-1.821077722,0.822021534,0.00577332,-280.8104551,-3.90014521,BeCl2
mp-557845,2.4773,-2.053506105,2.283211035,0,-136.2008772,-5.67503655,Na2TiS2O
mp-3668,0.6438,-0.095417066,4.428162286,0,-33.47747504,-4.18468438,CdGeP2
mp-758836,1.749,-3.007522515,3.427593742,0.096426406,-110.2474319,-7.349828795,Li4Ti3O8
mp-861654,0,-0.834032502,10.46821694,0,-21.02233403,-5.255583508,HoInPd2
mp-770830,2.7472,-2.82138948,9.24093615,0.035464992,-141.0499988,-7.052499939,HoBiO3
mp-561241,2.4477,-2.865696854,3.860832639,0,-488.7545808,-5.312549791,USb3O2F17
mp-983123,0,-0.571278015,13.16185681,0.00058035,-20.39091809,-5.097729523,HfMgAu2
mp-36864,2.418,-2.988150147,3.418627805,0.010833658,-84.64243822,-7.053536518,Li2TiO3
mp-12987,0,-0.510547959,7.897907988,0.008278743,-47.26578891,-5.251754323,Ho2NiGe6
mp-20249,0,-0.640229427,7.097485119,0,-94.39890492,-7.86657541,MnCoP
mp-12557,0,-0.808505328,5.509454768,0,-25.71340672,-4.285567787,SrCuAs
mp-777904,0,-3.049179078,3.859676305,0.032452879,-223.2617197,-7.973632846,Li2Ti3CrO8
mp-13190,5.8895,-3.079395908,3.628546694,0.000149362,-45.49132779,-4.549132779,KRb2GaF6
mp-850934,0,-1.57622682,4.583990096,0.116655378,-110.6441852,-6.146899178,Fe6O11F
mp-567871,0,-0.572673366,6.896528184,0.095110062,-142.8460685,-8.927879284,Nb5Si3
mp-541175,0.2217,-1.105081403,4.540348208,0,-91.76809266,-4.588404633,Sc7CoI12
mp-26267,0.2531,-2.477368186,2.897389089,0.022329297,-509.3655712,-6.702178568,Li2Cu(PO3)4
mp-865599,0,-0.928138655,13.93216733,0,-28.08714028,-7.02178507,Lu2RuPt
mp-1358,0,-0.810565002,16.66565604,0,-49.52958537,-8.254930895,DyIr2
mp-19194,3.8394,-2.933172804,3.932852925,0.005969527,-164.1447773,-7.46112624,BaMnP2O7
mp-781622,4.3411,-2.344503093,4.499224235,0.034836778,-346.6867682,-6.190835147,Lu(HO)3
mp-4385,2.6292,-1.783117555,4.744605226,0,-63.47008257,-6.347008257,CdCO3
mp-672376,0.3183,-1.417903973,3.858686292,0.007242876,-253.435058,-5.279897041,Re2Cl7O3
mp-19906,0,-0.502104681,7.891004862,0.003952425,-67.82787724,-6.782787724,Zr2InNi2
mp-684804,2.2095,-1.765733534,2.176676035,0.469444374,-133.8295727,-5.147291256,MgC2S2(OF3)2
mp-1019100,0,-0.597910981,7.04509853,0,-40.79046017,-6.798410028,SmFeSi
mp-768081,2.4381,-2.29947177,2.782364092,0.013449867,-320.8698777,-6.684789119,Na2FePCO7
mp-1013953,0.0481,-2.070781165,3.609678309,0.072674698,-360.9128922,-6.444873075,LiCo2P2O9
mp-6800,5.3245,-2.419361925,2.274654792,0,-80.6478395,-5.760559964,KLiSO4
mp-41057,0,-2.308037381,6.814544998,0.049946049,-68.65536154,-6.865536154,BaLaCuRuO6
mp-15521,0.0923,-0.427914672,3.725179791,0,-98.40239798,-4.100099916,Ba2LiSi3
mp-735531,3.9653,-1.258705917,2.161856667,0.049769288,-271.304405,-4.521740083,NiH8(ClO2)2
mp-560560,2.5768,-2.564882348,4.716857312,0,-382.124506,-6.368741767,CdSiO3
mp-31677,0,-2.439706965,3.28833769,0.071442795,-256.0329422,-7.112026171,LiCr2(PO4)3
mp-71,0,0.00854565,7.21309855,0.00854565,-1.52029221,-1.52029221,Yb
mp-5795,1.9969,-0.950021854,2.885547059,0,-25.86601836,-5.173203672,CaMg2N2
mp-21460,0,-0.562073159,8.43902598,0.031782073,-37.72894898,-4.716118623,CeIn2Pd
mp-17718,4.7301,-2.633824342,2.761677327,0,-211.7197873,-5.881105202,CsKNa2Li12(SiO4)4
mp-24240,4.6697,-0.510170755,1.829587262,0.00904146,-138.1540024,-4.934071514,K3B12H12I
mp-11118,1.9664,-1.362311887,4.931330176,0,-50.47235084,-4.206029237,CsPrCdSe3
mp-997023,0.8948,-0.292996717,3.646741335,0.280714877,-32.9314886,-4.116436075,CuBrO2
mp-8851,0.3489,-2.663835013,4.145290913,0,-151.4611322,-6.884596919,BaCuP2O7
mp-778021,0,-2.205742818,3.064621577,0.073087415,-475.8515976,-6.997817612,Mn7Fe(PO4)12
mp-30612,0,-0.652509733,9.804666658,0,-121.0755789,-6.053778946,Er7Rh3
mp-553961,3.3047,-3.487177529,4.627891446,0,-108.5488043,-9.045733694,ScNbO4
mp-865810,0,-0.402704114,11.6935631,0,-43.18452365,-10.79613091,TiTc2W
mp-2317,0,-0.283281171,8.40305409,0,-35.51756096,-5.919593493,LaNi5
mp-982388,0,-0.060070104,5.951004927,0.004294918,-12.50519039,-3.126297598,HoTmMg2
mp-707219,5.1135,-2.47758671,2.696564293,0,-377.1720139,-5.388171627,K2Zr2ZnH12(OF2)6
mp-12670,3.06,-3.648245506,7.991775185,0,-39.31460002,-7.862920004,Ho2SO2
mp-557917,2.2627,-1.976176735,3.755814567,0.023164876,-196.711031,-4.098146478,SbI(OF4)2
mp-5921,0,-0.461171895,10.10965297,0.008758254,-29.00476086,-7.251190215,TaAlNi2
mp-779228,0.4642,-1.316017292,4.402911568,0.059808077,-112.8509348,-5.129587947,Li4MnNi5O12
mp-13287,0.9837,-2.03262637,6.120272303,0,-37.43471335,-4.679339169,BaCuTeF
mp-560378,3.8805,-3.620222177,6.095518,0,-732.0458449,-8.714831487,Ca3Ta4(O6F)2
mp-764452,0.2335,-2.442334414,3.023570715,0.057052415,-97.4928787,-6.499525247,Li3Co2(SiO4)2
mp-27420,2.7096,-2.496135442,4.295755602,0,-33.7290308,-4.21612885,NaBiF6
mp-485,0,-0.457524784,8.426586646,0,-55.42478107,-6.928097634,ZrNi3
mp-572794,1.8661,-1.547981188,2.666671213,0,-220.3351842,-5.007617823,ReP(Cl2O)3
mp-31468,1.3786,-0.776906408,2.335579173,0,-56.77383543,-4.731152953,LiCaN
mp-686540,4.7694,-3.093539155,2.983087919,0,-232.1753527,-6.449315353,Na3Al2P2O8F3
mp-862787,1.6053,-0.696585067,4.533450669,0,-122.7083105,-4.090277017,AlInSe3
mp-863731,3.629,-1.151352188,2.271226469,0,-80.38440591,-4.019220296,InH4NCl4
mp-561197,5.5343,-3.59582573,4.812643129,0,-162.1326488,-6.755527032,TaF5
mp-971922,0,-0.40408951,5.429796739,0.013790085,-20.18539245,-5.046348113,DyYAl2
mp-5984,0,-0.583637098,8.45448171,0.012582381,-135.6439522,-7.535775121,Y(BRh)4
mp-777623,0.2327,-2.022129565,2.5830255,0.028515719,-365.793717,-6.773957722,Na4Mn2C4SO16
mp-979274,0,0.383269729,10.77232994,0.383269729,-18.24633803,-4.561584508,UAg3
mp-542297,0,-2.821687415,6.148217466,0,-149.5987179,-8.311039882,Eu2SO6
mp-976273,0,-0.699461036,11.89511272,0,-85.21096204,-8.521096204,Hf3Ge2
mp-770403,0.2125,-2.645680493,2.91067134,0.073415771,-289.8639139,-6.90152176,Li4V2(PO4)3
mp-999355,0,-0.872073246,6.597637154,0.380943205,-39.6195157,-9.904878925,NbN
mp-769268,4.1431,-3.417849805,6.036710354,0.031428585,-239.505223,-7.983507434,Sr4Ta2O9
mp-541686,2.7147,-1.402409147,2.331060679,0,-106.287165,-3.795970179,K3GaS3
mp-31058,0,-1.08913818,9.681899834,0,-29.85225501,-5.970451002,Er3InN
mp-541353,1.0323,-1.205038653,3.794280324,0,-269.3521425,-6.121639602,K2(TcS2)3
mp-24164,0,-1.209916306,3.761346038,0.003758002,-112.4506699,-5.111394085,CuH2(SeO3)2
mp-2606,0,-0.337702477,9.234612428,0,-29.84151827,-4.973586378,BaPd5
mp-4982,0,-0.745335998,10.22023339,0,-37.16236945,-7.43247389,SmBRh3
mp-980061,0,-0.513547924,7.283593545,0.258273717,-41.25036324,-5.156295405,TbAs3
mp-982981,0,0.377930845,3.126724221,0.377930845,-19.70083823,-2.462604779,Na3Rh
mp-556696,0,-3.094929909,4.924848729,0.005619184,-164.9731588,-6.873881616,Ba2YbB2ClO6
mp-10616,0.5951,-0.945638938,4.38381291,0,-11.31732487,-3.772441623,BaLiAs
mp-8456,0,-1.023013295,8.145341129,0,-30.91552778,-5.152587963,SrAsPt
mp-865402,0,-0.467328588,7.776464221,0,-41.18267845,-4.575853161,TmAlCu
mp-774182,2.7214,-2.639173447,2.866897854,0.067458191,-284.7808809,-6.780497164,Li3Cr(PO4)2
mp-27162,0,-0.220832215,3.959797561,0,-215.9274749,-6.747733591,Sc3Co
mp-770898,1.1178,-2.963594857,4.146670319,0.101289591,-204.8581961,-8.535758169,Ti3Nb2V3O16
mp-996965,0.7882,-1.122527659,7.638430062,0.044652926,-39.33971905,-4.917464881,AgBiO2
mp-4586,2.4411,-0.713668987,3.905929194,0,-29.59116408,-3.69889551,LiAlTe2
mp-20712,0,-0.699617155,6.900261178,0,-32.62522355,-8.156305888,EuGe
mp-541013,1.0878,-0.730207747,4.366868799,0,-35.2488061,-3.52488061,TiI4
mp-976969,0,0.014226208,9.683104559,0.032258238,-20.02633736,-3.337722893,MgPb5
mp-755954,3.6181,-1.692377059,3.998493421,0.050413386,-59.2768987,-3.293161039,BaSr2I6
mp-772410,2.271,-2.354503957,2.648381024,0.004877502,-223.6104885,-6.776075408,Ti(SO4)2
mp-458,0,-3.32294129,4.512568464,0,-90.17641346,-9.017641346,Ti2O3
mp-554699,2.7192,-1.951096196,6.075079387,0,-184.5536681,-6.151788937,GePbO3
mp-568446,0,-0.745900573,7.777300642,0.022206692,-205.0057192,-5.69460331,Er5Si4
mp-569662,0,-0.519411673,5.995732111,0.084995017,-41.53054652,-5.932935217,V2NiSe4
mp-16646,0,-0.584648905,6.600264894,0,-61.9556042,-5.162967017,PrMgRh
mp-23347,3.6886,-1.543886233,3.98706367,0,-63.38414348,-2.881097431,Rb4YbI6
mp-27321,0,-0.856574513,3.81293248,0,-87.38473489,-3.972033404,Na3(CuS)4
mp-558928,2.7339,-0.383166269,2.992892825,0,-8.09347429,-1.348912382,KrF2
mp-974492,0,0.001248054,13.57137967,0.002224389,-87.02859113,-10.87857389,ReTc3
mp-1288,0.1359,-0.416969983,7.240353766,0.04268783,-63.11222984,-3.944514365,AgO
mp-759798,2.9247,-2.326655436,8.433214421,0.022477058,-466.470306,-5.300798932,Bi7(O2F3)3
mp-19810,0,-0.378638624,8.889784297,0,-101.7323935,-6.358274594,TaNiTe2
mp-23819,5.2559,-2.104920278,2.372112359,0.00892319,-618.157885,-6.18157885,Al2P2H9NO11
mp-17189,0.3651,-2.967109916,3.556694506,0,-190.8715505,-6.816841089,K3Ce(PO4)2
mp-541289,1.488,-2.475030051,3.775544179,0,-214.219045,-7.140634833,Y2S3
mp-971751,0,-0.393709152,9.241614651,0,-34.42712313,-8.606780783,VRh
mp-752949,3.3206,-2.199273268,7.461910629,0.045574045,-32.28606013,-5.381010022,BiOF
mp-495,0,-0.48035085,8.472409876,0,-15.53927817,-3.884819543,LuGa3
mp-5167,0,-0.698551539,8.234822175,0,-29.01111217,-5.802222434,Sm(NiGe)2
mp-30100,1.6351,-0.513057126,4.205296177,0,-78.47601935,-4.359778853,Li2B2Se5
mp-24359,4.1423,-1.770793185,2.265949573,0.0160953,-697.9671238,-5.452868155,CaAs(HO)7
mp-555934,2.2511,-3.003382522,3.707784065,0,-38.49690635,-6.416151058,VF2
mp-980006,0,0.191577289,12.87408378,0.229930337,-15.03689535,-3.759223838,Yb3Os
mp-23144,1.4969,-0.725836322,7.372703208,0.000786607,-126.8451672,-6.34225836,TlRe3(Se2Cl)2
mp-1557,0,-0.405868539,5.47689369,0.000248861,-58.26060399,-2.427525166,Mg3Au
mp-1781,0,-0.139025938,10.15110475,0.013249723,-47.42842325,-7.904737208,NdRu2
mp-592,0,-0.773246488,8.419439021,0,-18.70963945,-9.354819725,TiRu
mp-17984,0.0065,-0.155929864,6.670740058,0,-99.82946092,-3.327648697,Ag8SnSe6