id,band_gap,formation_energy_per_atom,density,e_above_hull,energy,energy_per_atom,pretty_formula
mp-600029,5.4247000000000005,-3.2668865111111103,1.8462866865881045,0.011111158055554071,-284.58457351,-7.905127041944443,SiO2
mp-8727,1.8014,-2.4760709493181823,6.958596856519828,0.0,-132.91512857,-6.0415967531818175,Ba4PtO6
mp-780303,1.2771999999999997,-2.0463664551041667,4.5741423667745575,0.015476319843749309,-95.68076915,-5.980048071875,Li4Fe3SbO8
mp-768972,4.5838,-2.788717345928628,3.0196797273123406,0.060426863823530574,-162.28693681,-4.773145200294118,Ba3Y2Cl12
mp-557810,7.5679,-2.407159482082667,2.8444366841321163,0.0,-275.31673639999997,-4.588612273333334,BaH6F8
mp-560144,1.6315000000000002,-1.0598714612129996,3.43507812086849,0.0,-169.90668789,-4.24766719725,K2RuBr5NO
mp-757785,2.0942,-1.6122936176171878,8.87923678830546,0.029083172470702582,-182.61062578,-5.706582055625,Bi12PbO19
mp-552098,0.3777999999999997,-1.2639539529687505,9.181538947357726,0.0,-26.07984494,-5.215968988,Bi2SeO2
mp-779287,2.2372,-3.0189971107142854,7.116756451626383,0.0,-96.58256976,-6.898754982857143,La2HgO4
mp-540626,3.6512,-1.1469610191171429,3.4347107108091723,0.04219703988095258,-198.24913862,-4.7202175861904765,NiH8(IO5)2
mp-769307,4.5006,-3.4924228540833324,5.329258227744275,0.004826983666665896,-244.62147506,-8.154049168666669,Ca4Ta2O9
mp-18864,4.388,-2.244847317142857,4.522436766912591,0.0,-86.52957542,-6.1806839585714295,Rb2WO4
mp-7295,0.3060999999999998,-1.1823649651785717,3.720502912707147,0.0,-93.58279987,-6.684485705,RbCr5S8
mp-763776,,,,,,,
mp-867153,5.3602,-2.2642391084380336,2.5609252849559807,0.0,-189.25106066,-6.10487292451613,Rb2MgP4(HO2)8
mp-540475,,,,,,,
mp-28277,3.0315,-1.4776969091875003,4.163030175536749,0.0,-105.77327055,-3.3054147046875,K2PrI5
mp-761305,,,,,,,
mp-23457,3.0408,-0.4169778169045237,2.6656939976869145,0.0040396027083335895,-219.69026876,-4.576880599166667,PBr2N
mp-558958,5.4556,-1.3545024267188888,1.3338992291721636,0.03420285777777732,-177.46375286,-4.9295486905555554,H2O
mp-559833,5.261,-3.0767629100653338,3.326227780527078,0.004609117750006497,-528.66853116,-6.6083566395,Na2YC(OF)3
mp-555267,0.5123000000000002,-0.44443905140625,6.280314026834017,0.030840272708333224,-45.16203321,-2.822627075625,CuHgSBr
mp-625678,,,,,,,
mp-675230,2.4415,-2.1818288765625,3.6373961330304216,0.0023355125000001924,-43.843050700000006,-5.4803813375,NaLaS2
mp-40668,3.0924,-2.3469991130844057,3.19574580416656,0.0015770452083261333,-313.98598729,-6.541374735208334,NaCoP2HO7
mp-743676,0.8914000000000001,-1.1967604700960868,2.0369062668890856,0.24903444265910316,-248.27892291,-5.3973678893478265,VH10S2(NO4)2
mp-555438,6.4405,-4.106278772073846,4.733524104283611,0.01916879567307728,-605.35250849,-5.82069719701923,Ba3AlF9
mp-764047,,,,,,,
mp-850170,,,,,,,
mp-771801,,,,,,,
mp-767331,,,,,,,
mp-1019777,4.2027,-3.1598747995320524,4.32113237589163,0.0,-384.99849625,-7.4038172355769225,K2La2B2O7
mp-567011,,,,,,,
mp-755756,1.0627000000000004,-3.213959243833334,5.72253006158397,0.0,-40.6365774,-8.12731548,Y2TeO2
mp-32028,0.4353,-2.4013664182294643,2.5196164247711708,0.027779974669119408,-241.810429,-7.112071441176472,Mn(PO3)4
mp-771873,,,,,,,
mp-722766,2.8975,-1.314699768264,2.8238665431663708,0.04858604,-536.37160518,-4.4697633765,CaHgH16(BrO2)4
mp-758945,0.2156,-1.7530693357457572,2.5926235942518585,0.08042425363636152,-425.19985733,-4.831816560568182,Li5CuHO4
mp-850930,4.3429,-2.384365109479464,2.9544047217674883,0.7332398440277776,-334.15729227,-4.64107350375,Li3MnF5
mp-555958,5.4510999999999985,-2.869977859280303,3.102126476690125,0.0,-925.3038218,-7.009877437878788,Ba2Li3(PO3)7
mp-19207,0.4969999999999999,-2.5142493005833333,6.5725495843114325,0.1181897894999997,-135.67378518,-6.783689259000001,Sr2CoWO6
mp-722188,4.8688,-2.535077888088104,2.3020510296540544,0.01615380681034395,-743.73337307,-6.4114945954310345,NaCa4Si8H16O28F
mp-1986,0.6310999999999999,-1.791167493125,5.4463825330402855,0.007491949999999471,-9.08746106,-4.54373053,ZnO
mp-777069,,,,,,,
mp-769655,,,,,,,
mp-616127,,,,,,,
mp-545603,1.6618000000000004,-2.45378270425,7.1417109603723885,0.008760206999997244,-61.86517748,-6.186517747999999,Ba2BiSbO6
mp-560005,1.8316000000000003,-1.0926975591519998,6.3600103681689575,0.0,-268.08748595,-6.702187148749998,TlRe3(S2Cl)2
mp-559385,3.7325,-3.768036738809524,7.747896539784922,0.001055155000003083,-216.85287216,-7.744745434285713,SrHo2O4
mp-628726,5.2875,-2.2496439025224246,2.082740309767721,0.008399333522727925,-87.91504731,-3.9961385140909087,Sr(AlCl4)2
mp-762694,1.6201,-2.5192168934722217,3.851418249673967,0.0639901978240367,-126.52832413,-7.0293513405555546,Li3Ti2Fe3O10
mp-777254,,,,,,,
mp-25025,,,,,,,
mp-770811,4.5594,-2.471838485340909,3.1167242529805237,0.06093491318181954,-308.2947162,-7.006698095454545,Si2As2O7
mp-19569,,,,,,,
mp-23858,1.7386,-0.9240808551826664,3.2440487590081317,0.06474757150800238,-145.50798219,-4.850266073,H8PtN2(ClO)2
mp-566718,,,,,,,
mp-766967,2.8647,-2.4806103135251423,3.0119036358464446,0.4520845127777795,-387.41576912,-7.174366094814816,Li2Mn3(Si3O8)2
mp-554882,0.39570000000000016,-2.005910427796363,5.4281943076074946,0.0,-255.14181546,-5.798677624090908,DyCuTe2ClO6
mp-761643,,,,,,,
mp-531175,0.6883000000000004,-2.0120076255357136,6.251755182355814,0.03478728446428647,-304.23278299,-5.432728267678571,Cd(GaO2)2
mp-777779,0.38919999999999977,-1.843491430114092,4.7747175241000255,0.04505115728124665,-112.36426475,-5.6182132375,Li4Mn(TeO4)3
mp-755311,4.061,-3.255865399375,7.1394043430970076,0.0,-27.34796606,-6.836991515,NaLuO2
mp-555228,,,,,,,
mp-770293,,,,,,,
mp-763136,,,,,,,
mp-781961,2.6724,-1.9865077481228088,2.6268384638140096,2.32475891046874,-250.14053733,-6.25351343325,LiCrPH2O5
mp-680683,5.4514,-2.838694611997127,2.3868713082061173,0.0,-754.31162159,-7.857412724895832,CsB9O14
mp-29320,2.6200999999999994,-1.4223611339453128,5.190835144863364,0.01154114062499989,-127.91894325,-5.32995596875,Te3SeO8
mp-23494,2.313,-1.821891133484849,8.690230636868908,0.007386510757581455,-199.56776618,-6.047508066060606,Ti(Bi3O5)4
mp-762184,,,,,,,
mp-29839,2.8442,-1.590613836074218,7.127365214710226,0.0,-180.88792908,-5.65274778375,Bi2SeO5
mp-31888,,,,,,,
mp-686748,4.4653,-3.0702777846493325,2.7388896567707346,0.00033276550000049815,-413.64972651,-6.894162108500001,Ca2Al2Si(HO4)2
mp-770879,1.4464,-2.3147909890674603,3.4956014537076934,0.062269994606482186,-251.62396502,-6.989554583888888,Fe5Co(PO4)6
mp-625175,5.4045,-0.94230448143,1.9054417864842732,0.004374223611111283,-162.72851455,-4.5202365152777775,H3ClO5
mp-763328,0.6344,-2.0387922274587496,3.8935691566718855,0.10026410601562484,-73.42966376,-4.589353985,Co4OF11
mp-18749,3.2660000000000005,-1.7695130680208326,3.8550626299078616,0.0,-138.75420780000002,-5.781425325,NiSO4
mp-23485,1.2205999999999997,-0.2995018123809525,5.456795725355692,0.0,-14.16123608,-2.023033725714286,Ag2HgI4
mp-778539,,,,,,,
mp-662815,0.41110000000000013,-1.0116118729269292,3.600647221999745,0.03129627880952146,-217.14677333,-5.1701612697619055,Mn(GaS2)2
mp-762839,,,,,,,
mp-989606,1.81,-0.7519278129279996,5.509970095455398,0.0,-168.24418219,-8.412209109500001,CaReN3
mp-1001012,0.5765000000000002,-1.9677979053571428,3.208076583242633,0.00956502617347077,-83.18188724,-5.941563374285713,Sc2ZnS4
mp-25749,,,,,,,
mp-770382,1.0553999999999997,-2.483718137453704,3.425855541768498,0.14916863972221786,-256.90039903,-7.136122195277778,Li3V3(BO5)2
mp-1019806,5.1751000000000005,-2.946267106789474,2.980420577861965,0.010918686250018794,-524.87779357,-6.9062867575,KMg6P7O24
mp-764841,,,,,,,
mp-761465,,,,,,,
mp-559961,3.3195,-1.244813890691964,6.433406085983005,0.0,-135.66230571,-4.8450823467857145,Tl2SeO4
mp-770315,,,,,,,
mp-680674,2.5966,-1.2627467795566505,4.3333448026983685,0.001159258571429067,-85.7396673,-3.062130975,Cs3Bi2Br9
mp-675083,,,,,,,
mp-567956,1.6369999999999998,-0.8439147379127497,2.4889021736609407,0.08465321034403184,-135.73855321,-3.39346383025,GaSe2NCl6
mp-6167,2.9828,-3.3834911937499994,6.162807353869487,0.0,-78.01629466,-7.8016294660000005,Ba2NdNbO6
mp-768044,,,,,,,
mp-770330,,,,,,,
mp-605821,1.2106,-1.6879494124433916,5.815852426447563,0.04075103666666635,-188.63143164,-6.736836844285714,Nd3SeBrN2
mp-989195,3.9172,-3.2773827248366665,3.1551644649626724,0.07215899138888915,-43.32826745,-7.2213779083333325,ScClO
mp-565784,,,,,,,
mp-3277,4.2651,-2.1425629505555546,3.4378096694627835,0.0,-41.17593828,-6.86265638,BAsO4
mp-763078,,,,,,,
mp-768317,4.5469,-3.8273113323437498,6.516988747131302,0.0,-265.93512935,-8.3104727921875,Dy2SiO5
mp-17784,2.8697,-3.0602578770312494,3.968214365108336,0.0,-240.88967026,-7.527802195625,CaTiGeO5
mp-5618,3.041300000000001,-2.2941655895833337,3.799747452939092,0.0,-67.46628772,-6.133298883636362,Mg2As2O7
mp-29416,1.5334,-1.5762965932812505,4.728352035718875,0.011027036808033408,-329.24447887,-5.14444498234375,Pr5C2Br9
mp-557004,5.5806,-3.2642701027777785,1.758123014155866,0.013727566388887169,-284.49038281,-7.902510633611111,SiO2
mp-23914,4.9878,-1.5709794463076183,1.6767880370774255,0.01829186142857431,-101.84856581,-4.849931705238095,CaH12(ClO3)2
mp-744625,3.8247,-0.9940392829788884,1.8692283442514253,0.0,-261.06586723,-4.834553096851852,ZnCrH15N5Cl4F
mp-9702,2.0162,-2.5949006619568453,3.754218282970645,0.0,-101.31464393,-6.332165245625,Sr3BPO3
mp-767592,,,,,,,
mp-720279,3.3168,-1.4941298204522435,2.1193004708692813,0.08228201298468818,-517.49851568,-5.28059709877551,Na4H20RuS4(NO9)2
mp-560824,1.0963000000000005,-3.016534767373333,6.429716967494477,0.002421887695312819,-267.78279785,-8.3682124328125,La6B(NO2)3
mp-2918,2.6489999999999996,-2.7309348902083324,4.865677696185515,0.0003215379687508957,-59.96070365,-7.49508795625,YCuO2
mp-772403,0.9857,-2.829792835833333,5.068821263637101,6.996482145105176e-05,-205.85232040000002,-8.577180016666668,NbVO4
mp-867570,2.4295,-1.8347157551136373,4.0769155802362125,0.0,-214.36134444,-4.871848737272726,Rb4Sb2O5
mp-850747,3.2538,-2.337789293209252,3.2104763936403686,0.060639282678573984,-376.56879669,-6.724442798035715,LiFe2P2HO8
mp-7905,4.7684,-2.8611291875,2.342949604384874,0.4168684816666657,-44.99621831,-7.499369718333334,SiO2
mp-707424,4.7445,-1.6762915160694138,2.448347204459871,0.0,-348.36407315,-5.44318864296875,Al2H12(SeO5)3
mp-11737,4.774100000000002,-2.6818867229629624,2.3473404990026268,0.01721247444444529,-108.35744890000001,-6.019858272222222,Li4SiO4
mp-778566,,,,,,,
mp-9405,3.8394,-2.06229762250375,2.8482019386781317,0.006905052037042836,-87.58199786,-4.865666547777779,K3SeO4F
mp-23648,5.2612000000000005,-3.129685250866377,2.2478503402743883,0.0,-318.65437648,-6.927269053913044,Li4Al3Si3ClO12
mp-770847,1.3023000000000002,-2.691828144305556,6.435596114405843,0.07920723708333277,-228.55680165,-6.3488000458333325,La2Cd2O5
mp-849971,,,,,,,
mp-22958,3.8455,-1.0579926073499997,3.0090500746074618,0.0,-20.77428493,-4.154856986,KBrO3
mp-997011,0.4390000000000001,-0.25870772562499944,3.7945535196074704,0.3108263241666682,-32.749830100000004,-4.0937287625,CuBrO2
mp-757205,2.7166,-4.221729174645834,8.476430887222152,0.05682521893750093,-189.62967515,-9.4814837575,Y2Th5O13
mp-755891,4.5129,-1.8053081357043912,2.6830536519461874,0.03582191317708272,-62.12828671,-5.177357225833333,CsLiH4SO5
mp-570972,1.0408,-1.736813352382785,3.4276859474762174,0.015943427227434803,-141.45361269999998,-5.2390226925925925,K2Mn(NbCl3)6
mp-704227,0.24150000000000005,-2.4392958390634294,3.218611026502057,0.043246275102033487,-366.02078488,-7.469811936326531,Mn9(PO4)8
mp-770236,,,,,,,
mp-5127,1.4342,-1.4379356601388888,4.046537954683517,0.0,-58.27040789,-4.855867324166667,LiCuO
mp-542622,4.1559,-2.141230461866883,2.0292301508291666,0.04130455565584335,-299.70534723,-6.8114851643181815,P4O7
mp-764063,0.6811999999999996,-2.2701859811705547,4.195779294373734,0.0,-65.17032092,-5.430860076666666,Li2CoO2F
mp-23609,4.4852,-2.5728626394934726,3.7447776428375055,0.0009266810833334916,-337.46064345,-7.030430071875,Zn3B7ClO13
mp-772583,3.2671,-2.768028280267856,3.8945051070342784,0.08353665071428651,-400.70410515,-7.155430449107143,Ca3W2O9
mp-730,1.064500000000001,-0.6830229832142862,8.957968329907429,0.0,-75.78619353,-6.3155161275000005,P2Pt
mp-777233,6.6724000000000006,-4.304271969897619,4.414062119484923,0.059883107857143784,-182.47079978,-6.516814277857143,BaYF5
mp-7938,0.8210000000000006,-1.4946950860624997,3.965989493851661,0.008583332125000176,-48.27292813,-6.03411601625,KNbS2
mp-540138,0.0,-2.3060208399744906,3.6141618929707104,0.10810822249999852,-200.3935769,-7.156913460714287,MoPO5
mp-762239,1.2569,-1.6977776247905751,2.386504083340753,0.09590924305555326,-133.37677479,-7.409820821666668,Mn(CO3)2
mp-24881,,,,,,,
mp-756317,1.3461,-2.551965252142857,6.737775560465642,0.11447764259740455,-85.28239864,-6.091599902857142,Al2HgO4
mp-600273,,,,,,,
mp-569603,0.2397,-0.7672576629109092,3.7190319528327582,0.0,-233.45983261,-5.305905286590909,BaCa4(CuN2)2
mp-753677,2.5678,-1.2289050406249995,3.8277206710088953,0.04867504214285834,-57.26897965,-4.0906414035714285,Li3BiS3
mp-764160,,,,,,,
mp-974682,1.3537,-0.2866942874349996,3.2240517684475685,0.0,-46.53949786,-2.90871861625,RbGaH2
mp-866836,,,,,,,
mp-558411,2.7028000000000003,-3.8594764364015166,5.2551766640521755,0.059594231931816566,-204.40289931,-9.291040877727273,Y2Zr2O7
mp-779738,2.0581000000000005,-2.5428328384519987,10.387378842134504,0.003660491499999807,-422.23314861,-10.55582871525,Hf2N2O
mp-762429,,,,,,,
mp-557962,2.3925999999999994,-1.5869612614236104,2.703656731827438,0.0008508484722256071,-120.87412767,-5.03642198625,SrLiBS3
mp-776110,2.5540000000000003,-2.5993011735833327,4.2576818197440085,0.02589205016666707,-421.79025491,-7.029837581833331,SiSnO3
mp-769708,,,,,,,
mp-23827,3.8686,-0.9755246455536506,3.378297190893812,0.0,-73.69692822,-3.5093775342857145,Sr7(H6Cl)2
mp-554191,1.8662,-3.039948133571428,5.73526649436852,0.0,-104.35630966,-7.454022118571428,Na2UO4
mp-764506,1.4032,-2.341160892480619,3.2087061766262615,0.06979545514535879,-307.61815964,-7.153910689302325,Li3Fe8(BO3)8
mp-556553,5.1327,-3.1861510816666665,2.4632457958636667,0.0918465874999992,-93.89269935,-7.8243916125,SiO2
mp-22893,2.3871,-0.6674849166666667,5.35729201869938,0.0009501324999998672,-8.76306243,-2.92102081,PbI2
mp-644418,3.56,-2.0388343724062503,2.305117257830501,0.015831490624997002,-96.01445648,-6.00090353,CaH2CClO3
mp-769001,3.47,-2.482218211429598,3.2740730541504246,0.05484071956896664,-379.08731029,-6.535988108448277,Li6Sn2B4SO16
mp-694629,1.2035,-2.505404864389233,2.9103690266475666,0.111175934710122,-508.22751401,-7.365616145072463,V3(PO4)4
mp-566258,,,,,,,
mp-557826,1.9176,-3.242585855832143,5.338209458607747,0.0,-845.12130427,-8.4512130427,Li3U7(PO7)5
mp-39542,4.584300000000002,-3.37750131102,3.3807462713217284,0.02015693562500065,-56.74259697,-5.674259697,KRb2ZrOF5
mp-565854,,,,,,,
mp-616577,1.8788,-1.5173637227791668,3.4777527159193395,0.0,-174.29475258,-5.446711018125,Sr3BCNCl2
mp-759657,0.4491,-2.579835683964,3.198344152783621,0.049008870250007774,-353.18106298,-4.4147632872500004,Li3CuF6
mp-1013554,0.5116999999999998,-0.8522500021902857,3.897567300938732,0.015958634925000936,-22.69545182,-4.539090364,Sr3PN
mp-768185,2.2457000000000003,-3.4038998832629104,4.340559074050497,0.047313401883833706,-593.80375103,-8.36343311309859,Ba4Li4Ti19O44
mp-18303,1.2003,-1.3092637830338545,6.215403929555545,0.0,-125.15695404,-5.214873085,Nd3CuSnSe7
mp-676666,2.1299,-2.715483033958334,5.0533622966900245,0.0,-73.84810382,-6.154008651666667,Rb2CeO3
mp-763994,,,,,,,
mp-767246,,,,,,,
mp-13339,0.6231999999999998,-1.9636471477975004,7.318298458881572,0.00948943875000019,-53.619379599999995,-6.70242245,EuCuTeF
mp-780192,2.5866,-1.8703061913333336,2.505205902422309,0.24645120237499896,-203.86654038,-5.0966635095,Li5FeO4
mp-626885,1.8955,-2.588622467462856,6.5292725935848095,0.07719368500001611,-105.74780496,-7.55341464,U(HO2)2
mp-18953,2.3509,-2.7134725541466658,2.9615954101557604,0.0,-72.65169141,-6.0543076175,NaV(OF)2
mp-769590,0.9958,-2.4339087195238087,3.810113415917636,0.06026856321428298,-203.39801502,-7.264214822142858,Li2V3CrO8
mp-780862,0.15270000000000006,-2.6276222561750577,4.0653416500820265,0.07147868670833635,-196.17381023,-6.539127007666666,Mn2OF3
mp-763435,,,,,,,
mp-17395,0.7755000000000001,-2.8294649742647056,4.336999575560022,0.005015400575977935,-265.05755505,-7.79581044264706,TmCu(BO2)5
mp-778289,,,,,,,
mp-5014,0.5629,-0.3265300521527781,6.126456539171258,0.023781340000006423,-45.537263,-3.794771916666667,CuAgS
mp-556382,0.8960999999999997,-2.07506494315,5.702971652405827,1.3510381177777804,-38.38327883,-6.397213138333334,EuClF
mp-27377,3.1866000000000003,-3.275482556523809,4.1761954155695244,0.0,-166.91321825,-7.948248488095237,K4Zr5O12
mp-765849,,,,,,,
mp-779917,,,,,,,
mp-18509,6.2458,-3.333216870265,2.6612081152876867,0.0,-146.07617107,-5.217006109642857,KBe3ZnF9
mp-762698,,,,,,,
mp-27452,1.5674,-1.6629306473709091,2.014980800931513,0.0,-81.98136707,-3.726425775909091,Al2PdCl8
mp-504166,,,,,,,
mp-759441,1.4952,-2.2837876001309523,2.9230389391551186,0.08531631392498795,-521.17256048,-6.514657006,LiCu(PO3)2
mp-721236,2.3384,-1.2754148384523811,2.0700980558806323,0.02168863900000595,-214.9386892,-4.298773784,Li10Sn(PS6)2
mp-780172,3.1122,-3.0599185315740747,7.970197114737406,0.0036170877777674795,-260.42670928,-7.234075257777778,Tm2TeO6
mp-773016,5.3442,-3.1396619363439866,4.59353413453605,0.06336645480263138,-291.08454474,-7.660119598421053,Lu2P4O13
mp-7440,0.8676000000000004,-0.3857024630357144,2.0524998690733867,0.0,-59.97531034,-3.74845689625,NaP
mp-626073,4.574,-2.0569877378014283,2.298307471537699,0.0764339864285688,-324.80557108,-5.8000994835714295,Al(HO)3
mp-756593,2.2021,-3.389532600553846,6.024090803827762,0.08183404340658029,-107.96833366,-8.305256435384615,Ta3(OF)5
mp-9841,5.8883,-2.7985382856985286,3.7233111994952415,0.0,-472.30782273,-6.9457032754411765,Er2(SO4)3
mp-853171,,,,,,,
mp-24402,5.2441,-3.112644185263334,3.320305828948177,0.005346810092630605,-254.60116357,-7.072254543611113,CaAlSiHO5
mp-783907,4.0445,-2.3138907776495583,2.8710674633671376,0.1888176672291637,-323.76974068,-6.745202930833332,LiMnP2HO7
mp-3006,1.5818,-0.7354124293956047,3.0720737068412687,0.0,-63.70031306,-4.9000240815384615,P2Pd3S8
mp-765967,,,,,,,
mp-850757,1.5930000000000002,-2.5384979869111115,4.107186880011228,0.07201376444444207,-102.80757828,-5.7115321266666665,Fe3OF5
mp-781966,,,,,,,
mp-765536,,,,,,,
mp-39626,2.0439,-2.4236981169781826,6.8541396959224565,0.4964017862850838,-72.42444513,-7.242444513,SrLaMnWO6
mp-766949,,,,,,,
mp-35249,3.7274,-4.007673987765153,8.512058956154188,0.0,-206.30761328,-9.377618785454548,Sm2Hf2O7
mp-542840,3.3503000000000003,-2.4109124344166664,6.318074200605126,0.0,-392.60001442,-6.543333573666668,In2Si2Pb2O9
mp-760092,3.0222,-2.1471058587300003,4.4701047085296555,0.06892465604166809,-259.78452422,-5.412177587916666,SbOF
mp-775200,0.2712999999999999,-2.1808452193965024,3.717673227561143,0.040078672552080086,-164.11743245,-6.838226352083333,MnNi(PO4)2
mp-763712,,,,,,,
mp-29048,2.5176,-2.121202750238095,6.6582287561344735,0.0,-82.58679028,-5.89905644857143,Sr(BiO2)2
mp-28091,3.0178,-1.7227200484821428,5.929032138617235,0.0,-309.04936059,-5.5187385819642865,In2(TeO3)3
mp-767231,,,,,,,
mp-18776,2.7479,-2.7596943237175333,3.3617347632350287,0.007564084621206391,-156.27329619,-7.103331645,CaCoP2O7
mp-762879,,,,,,,
mp-984766,5.1281,-0.4492573096024237,1.1468577591099418,0.012463965909090824,-92.43593543,-4.201633428636364,Ca(BH4)2
mp-17166,4.8199,-2.783118018314103,2.385929484022225,0.0,-379.35421192,-7.295273306153847,K2B4O7
mp-578882,1.7237999999999998,-0.6616162320312502,5.94118120442899,0.026894662656249846,-113.46046188,-3.54563943375,SbPb2S2I3
mp-19680,,,,,,,
mp-27802,1.3520999999999992,-1.3460532207291678,4.638070332271154,0.0,-170.39309829,-4.733141619166667,BaSn2S3
mp-17676,2.0801,-2.538846232198542,4.103488451444514,0.0,-163.76838885,-5.1177621515625,Sr2SnS3F2
mp-761446,,,,,,,