id,band_gap,formation_energy_per_atom,density,e_above_hull,energy,energy_per_atom,pretty_formula
mp-754912,0,-1.347551374,4.380980254,0.112096007,-19.8503008,-4.9625752,LiCuO2
mp-567538,0,-0.296786135,9.550794932,0,-21.23556161,-3.539260268,YbCu2
mp-1882,0,-0.120990924,6.536938961,0,-23.22470169,-3.870783615,CaCu5
mp-14387,4.473,-3.711856335,5.962931937,0,-630.3080758,-7.878850948,Tb3Al5O12
mp-21719,0,-0.626235993,6.146050433,0,-256.1191956,-7.114422099,Sc2V3Ge4
mp-8603,1.4199,-1.001792443,4.492498618,0,-44.30799425,-3.692332854,RbAgO
mp-769026,1.3025,-1.834881303,6.149964436,0.049642648,-125.6108945,-5.233787271,Li2BiO3
mp-28275,4.8518,-2.534345952,3.184791398,0,-133.4430756,-4.170096112,Rb2PrCl5
mp-704204,1.8692,-2.592077773,2.612477006,0.051116018,-279.1428374,-6.978570935,Li2MoP4O13
mp-754920,6.6196,-4.301694535,4.642116411,0.061376394,-182.4263609,-6.515227175,BaYF5
mp-6416,3.3681,-3.2865381,7.979207565,0.012357065,-264.896732,-6.970966631,Ba5Er8Zn4O21
mp-1013553,0,-0.784321727,3.306456911,0.288525649,-19.03140481,-3.806280962,Sr3AsP
mp-28516,0,-0.506941431,9.203617197,0.006365293,-149.7502573,-6.239594054,LuMnGe2
mp-773598,1.3677,-2.548340227,3.358408885,0.017792471,-262.1642606,-7.282340571,TiFe5(PO4)6
mp-95,0,0.00672522,2.709120336,0.00672522,-1.67732814,-1.67732814,Sr
mp-680087,2.021,-1.139962933,3.998531328,0.000340422,-308.755534,-3.508585613,ZnS
mp-2945,0,-1.239861735,5.985291974,0.019446428,-113.0161705,-7.534411369,Yb(Mo3S4)2
mp-778079,6.4487,-4.323321337,5.166870947,0.039749591,-45.75797784,-6.536853977,BaYF5
mp-28222,1.9084,-1.151118812,3.689068785,0.010945453,-42.08108623,-3.005791874,Rb3Sb2Br9
mp-769543,0,-2.615385531,2.886624277,0.083176937,-209.14691,-6.971563666,Li3Mn2(SiO4)2
mp-776008,0.0082,-2.275239405,3.421113594,0.083469111,-245.9949078,-6.833191883,TiFe2Ni3(PO4)6
mp-558491,6.0694,-3.56158504,4.276109876,0,-112.7284992,-7.045531199,BaAlBO3F2
mp-849797,4.5168,-0.35014327,1.501345304,0,-824.1261765,-5.150788603,B6H10C2SBr
mp-568186,0,-0.317748863,8.939234166,0,-103.8106759,-8.650889659,YRu2
mp-27938,1.7794,-0.652985493,6.55403102,0,-61.85038187,-2.811380994,Tl6SI4
mp-10834,0.9449,-1.953657396,4.598705107,0,-88.2658984,-5.51661865,RbNd2CuS4
mp-626219,4.7683,-1.014762044,1.850512852,0.051576583,-219.9526798,-4.582347497,H5ClO6
mp-5878,3.7137,-2.832272486,3.802594491,0,-20.80617398,-4.161234796,KZnF3
mp-765172,1.0279,-2.051683892,4.394130283,0.082827294,-171.344842,-6.119458643,Fe3(OF)2
mp-9600,0,-1.364020267,5.357125021,0.080869394,-78.55026676,-5.61073334,Cu2GeO4
mp-766558,0.502,-1.903720835,3.968080783,0.049090141,-272.6771934,-6.816929835,NaMn3O6
mp-615850,2.4616,-1.256575413,5.247519637,0.011409353,-153.8883791,-5.918783811,Pb2Se(NO4)2
mp-974572,0,0.406429032,2.399439916,0.418098897,-13.69839689,-1.712299611,Rb3Si
mp-753171,0.5794,-2.578399415,3.324928962,0.017085584,-63.29246802,-4.520890573,Li2CuF4
mp-504617,0,-0.553502361,7.015881111,0,-156.2668611,-7.813343056,Ti3Co5B2
mp-492,0,-1.907854605,5.340303738,0,-39.3306175,-9.832654375,TiN
mp-699466,4.0413,-1.206087259,2.302206748,0.016935752,-499.5017394,-6.243771743,ZnPH7C2N4O5
mp-978785,0,-0.64371511,10.95011113,0,-223.5352772,-6.985477413,Si4MoPt3
mp-27291,0.0161,-2.326078756,4.488788257,0,-52.28631727,-5.228631727,PaCl4
mp-19402,1.0723,-1.989710801,4.592168539,0.00403092,-115.5618192,-6.797754072,V4Ag2O11
mp-971826,0,0.418424688,9.767067252,0.418424688,-8.66688542,-2.166721355,Tl3H
mp-779720,3.9705,-2.467354909,3.630999815,0.062528921,-448.3653171,-5.604566463,Li5LaO4
mp-13222,0,-0.167862531,7.218755179,0,-93.66599966,-3.902749986,SmMg2Cu9
mp-626568,3.8913,-2.078426915,2.462195676,0.06024361,-325.5643772,-5.813649592,Al(HO)3
mp-5901,0,-0.621207474,5.997338832,0,-56.85807343,-7.107259179,CeMnSi2
mp-559798,4.8034,-2.130057019,4.655346072,0,-25.69105561,-4.281842602,NiF2
mp-778,0,-0.457520821,7.08359519,0,-71.10605565,-7.90067285,Fe2P
mp-542704,4.4176,-1.605817516,3.057541445,0.058275375,-119.370073,-5.968503652,CsHCO2
mp-582080,4.5826,-2.540701164,3.159509901,0,-162.1715168,-4.054287919,Cs3LaCl6
mp-559061,2.2077,-1.674962689,3.977103988,0.026167804,-88.17333966,-3.673889152,K2Hg2SCl4O3
mp-30243,3.7709,-2.502859782,2.852839881,0.017166658,-101.447754,-5.635986334,Mg3(HO2)2
mp-1006887,0,1.983565718,7.216164928,1.983565718,-6.1730765,-3.08653825,CdC
mp-757218,1.681,-1.438861842,2.833784411,0,-225.8044711,-4.804350449,K4Na2H18Pd(IO10)2
mp-865896,0,-0.36836689,8.817075876,0,-13.40611496,-3.35152874,YbPmAg2
mp-559251,1.2898,-1.118347483,2.061293876,0,-411.0950633,-5.138688291,K3Cr2(PS4)3
mp-4452,2.1155,-1.067401717,3.81959727,0,-28.30555782,-4.043651117,Cd(GaS2)2
mp-2403,0,-0.98348237,15.88742523,0,-28.57180033,-7.142950083,YPt3
mp-754646,2.9732,-3.070734216,7.680404771,0.012763818,-163.6387258,-7.438123902,Dy2Ge2O7
mp-774413,0.6777,-2.50491287,2.864703001,0.02527891,-248.7297834,-7.315581865,MnV3(PO4)6
mp-771081,4.0903,-2.547745774,2.62916667,0.061909353,-266.804258,-7.021164685,Li3Ni(BO2)5
mp-973434,0,-0.84974222,15.5545252,0.033063787,-41.43727051,-10.35931763,Hf2IrRu
mp-569072,0,-1.017673283,5.687149338,0.00424508,-205.2346567,-6.413583022,La3B(CBr)2
mp-1722,0,-0.024532803,7.31938599,0,-25.35003884,-1.81071706,Zn13Fe
mp-973886,0,-0.627223792,11.68432517,0.020717179,-26.01756507,-6.504391268,Lu2CoRh
mp-735489,3.3606,-1.705149716,1.883813132,0.0537366,-926.8839565,-6.436694142,KCaCrH10C6O17
mp-780534,4.0007,-0.35549997,1.638725373,0.085279698,-436.1467873,-4.956213492,Rb(BH)5
mp-631946,0,0.584146781,15.6448547,0.66368159,-33.37221129,-8.343052823,SnOs2Ru
mp-24658,0,-0.750139023,6.462583719,0,-13.4462395,-4.482079833,SmH2
mp-30301,5.7447,-1.124430966,2.337807887,0,-107.2562808,-4.469011698,LiClO4
mp-770427,3.955,-2.83413795,3.398937103,0.062910495,-131.8376229,-4.708486532,BaLaCl5
mp-6441,4.4626,-2.790828593,2.430654023,0,-165.0642354,-5.895151264,K2PO3F
mp-745148,1.6651,-2.38505822,2.963707723,0,-309.4330849,-7.032570112,MnP2HO7
mp-769096,0,-0.306522797,3.976097837,0.054623256,-193.9862438,-6.466208128,MnP4
mp-10924,0,-0.631696458,6.633812615,0,-72.85213943,-6.622921766,Mg(Co3P2)2
mp-555056,1.6653,-0.872183853,2.345208328,0.05521861,-35.25359987,-3.525359987,SbS2NCl6
mp-8870,3.4544,-2.402799186,3.569512009,0.001432788,-167.5416177,-5.983629203,LiMgAsO4
mp-30855,0,-0.719933075,19.06636666,0,-64.68723045,-8.085903806,UPt3
mp-546679,1.0694,-3.096001851,7.135188147,0.076328143,-55.58202504,-7.940289291,Nd2AlNO3
mp-1697,0,-1.106636878,15.92900485,0,-40.12206625,-6.687011042,TbPt2
mp-9969,0,-0.8354512,3.336115925,0,-26.85751324,-6.71437831,ScSi
mp-7609,3.3125,-2.219815465,4.819333025,0.001059433,-65.73503176,-5.477919313,SbOF
mp-7863,1.2253,-1.724595131,4.389300439,0,-34.80327132,-4.971895903,Rb2Sn2O3
mp-982619,0,0.00249605,8.827903002,0.003785178,-36.40475885,-4.550594856,Ho3Tm
mp-29626,1.6512,-1.08784193,3.093213003,0,-122.8295513,-4.094318378,Na4Sn3S8
mp-11189,4.6771,-2.972311353,2.484305327,0,-206.1189961,-6.441218627,Li2MgSiO4
mp-780312,1.0737,-1.975393848,4.122529737,0.073165026,-199.6804074,-5.872953158,Li5(FeO2)4
mp-767952,0.9175,-2.189972786,2.605955949,0.008115355,-308.5067022,-7.011515959,NaMnPCO7
mp-13765,0,-0.37990334,8.573373158,0.00179812,-129.5652739,-7.198070774,Ce3Co11B4
mp-756444,2.0821,-3.168813258,3.579863632,0.072999496,-180.3279436,-8.587044934,Ca2Ti6N2O11
mp-555617,0,-1.39005214,6.332775533,0.007431796,-144.6161101,-6.886481435,Ce10Si8O3
mp-16135,2.5134,-3.079993654,6.238429,,-334.1566263,-7.59446878,Sm3NbS3O4
mp-755928,0,-0.454533628,5.318814618,0.392479453,-99.27771302,-4.963885651,Cu2O3
mp-4053,0,-0.823660441,10.98747788,0,-19.18916097,-4.797290243,YbSnPd2
mp-625616,4.2009,-1.25167836,1.718173257,0.009402237,-260.8632102,-4.65827161,H9BrO4
mp-1002206,0,0.537289993,3.984606503,0.742265641,-13.57621076,-6.78810538,SiC
mp-558911,0,-0.923299081,4.723297186,0.025622457,-90.576258,-5.032014333,Cs2Co3S4
mp-867174,0,-0.400624453,5.325336124,0,-10.8039684,-2.7009921,SrLi2Pb
mp-865210,0,-0.044792048,6.210435334,0.003203392,-12.3918852,-3.0979713,TmLuMg2
mp-29292,3.3335,-0.167709887,0.920660475,0.005389268,-902.0733595,-4.902572606,B10H13
mp-554658,0,-1.657411149,6.367520196,0.000591906,-105.2583524,-5.847686244,Cu(SbO3)2
mp-683943,1.668,-0.40514466,2.998298913,0.072741835,-580.9114355,-7.261392943,Na2MoC3SeN3
mp-642823,1.0648,-3.253417571,6.914924721,0.01379901,-178.7555962,-8.125254373,Dy2V2O7
mp-3368,3.0833,-2.997440036,4.713149488,,-385.6144717,-8.033634826,LiNb3O8
mp-12860,0.0012,-1.623715128,4.837676081,0.038670596,-61.18420802,-5.098684002,Na3Cu2SbO6
mp-27953,0,-0.356618919,9.305560946,0.008924995,-61.49403013,-10.24900502,Mo2N
mp-21839,0,-0.320331014,6.463464469,0,-237.246202,-4.393448185,Ba4Ge20Au3
mp-581425,2.0194,-1.14002324,4.000432511,0.000280114,-252.6225063,-3.508645921,ZnS
mp-540064,0.9591,-2.421177021,2.644091141,0.067430726,-246.1626261,-6.837850726,LiCo(PO3)4
mp-29457,0,-2.508975152,4.893253567,0,-193.8436575,-4.615325178,Ba2Cu5F14
mp-764552,1.745,-2.375481255,3.204698068,0.044323569,-312.8298901,-7.10977023,LiFe2(BO3)2
mp-999396,0,0.042252665,8.525086613,0.143085875,-35.94866333,-8.987165833,Nb3Ni
mp-554678,2.4562,-2.527985896,4.661996595,0.00598824,-105.2075007,-6.575468791,CaGe2O5
mp-1020146,5.4471,-2.79991012,2.223011113,0,-350.3293058,-7.298527205,Na2LiB5(PO7)2
mp-770125,3.8831,-2.821080781,3.612846325,0.075967664,-131.4720222,-4.695429364,BaLaCl5
mp-999454,0,-1.340588901,3.1186917,0.024148053,-22.70879954,-5.677199885,NaVS2
mp-9907,0,-0.610450994,5.010690941,0,-36.13876514,-4.517345643,SrAs3
mp-557998,1.804,-1.9119088,5.527437727,0,-141.069553,-5.877898041,Dy3CuSiS7
mp-774946,0.648,-2.383073737,4.348831571,0.05676133,-388.7652505,-6.942236616,Li2V3SnO8
mp-28925,0,-0.973699354,5.280851261,0,-149.1613032,-5.327189401,Ca4(PPd)5
mp-22967,0.3768,-1.058423127,3.91359861,0.029745496,-26.20079718,-3.742971026,Li2FeBr4
mp-6068,0.1858,-2.869985894,6.215120052,0,-142.6398812,-7.131994062,Sr2TbRuO6
mp-19200,0,-2.991157859,7.271690423,0,-172.8105166,-7.855023481,Tb2Mo2O7
mp-708992,5.3867,-1.419884644,1.586349739,0.056153431,-435.6805825,-5.446007281,AlH20C2S2NO14
mp-3849,0,-0.70657544,5.837663495,0.071496616,-41.16383774,-5.145479718,TlFeS2
mp-505421,0,-1.685735682,5.109504432,0.038539387,-95.52380206,-6.823128719,Mn2CuO4
mp-756812,2.1535,-2.233469726,4.560086736,0.005446155,-143.7221691,-5.132934609,Rb3ErO3
mp-989565,4.4192,-2.84648339,4.788465324,0.00450448,-44.41881746,-4.441881746,Rb2TlGaF6
mp-23454,2.0607,-1.087643192,4.637018439,0.012423952,-22.66533191,-2.833166489,CsAgBr2
mp-567948,0.5428,-0.909724447,4.304630255,0.009359094,-24.95290451,-2.772544946,Rb2Pd(IBr2)2
mp-961719,0,-0.377584545,9.735846664,0.483354586,-23.08176111,-7.69392037,HfAsRh
mp-2781,0,-0.905029993,6.873734513,0,-13.32073899,-6.660369495,ScPd
mp-7565,0,-0.143892769,9.815873708,0.048430436,-54.72460351,-6.840575439,SbRu
mp-981699,0,-0.44622634,7.615391573,0,-20.15942658,-3.35990443,SmZnIn
mp-6667,5.3171,-3.107315883,3.050019725,0.005556636,-180.2436563,-7.510152344,CaBPO5
mp-14100,0.8489,-1.235567641,7.135586861,0,-82.3264889,-5.880463493,Cd(RhO2)2
mp-550805,1.4719,-2.49286899,8.571992102,0,-50.42482235,-6.303102794,LuBi2ClO4
mp-795582,0,-1.490648299,8.789344346,0.484525497,-166.4358187,-9.246434371,Nb4ReO4
mp-23905,5.0249,-1.755105032,1.935727612,0.010456062,-132.9548141,-5.780644089,KMgH9(CO5)2
mp-13082,0,-0.358231834,7.341946234,0.02038616,-32.28673736,-8.07168434,Mn2CoSi
mp-26150,0,-2.37542499,3.299474318,0.055898192,-467.4629229,-6.874454749,Sb(PO3)4
mp-559088,2.9987,-3.109074057,4.866891201,0.026443846,-252.8157839,-7.022660665,La2Si(IO2)2
mp-3441,0,-1.127964022,7.029304968,0,-37.65171443,-7.530342886,Y(SiRh)2
mp-676121,0.3739,-0.219939335,5.912215138,0.060743516,-29.13839034,-2.913839034,Ag3SI
mp-999249,0,-0.186492774,5.36567757,0.411270004,-27.19304067,-6.798260168,Sc2MnGe
mp-9918,0,-0.282723238,3.762761271,0,-56.76932265,-3.548082666,LiGe
mp-690703,5.2435,-1.889850036,2.996539817,0.023386663,-171.4108919,-4.761413663,BaH4(ClO)2
mp-39681,2.7329,-2.849570636,5.802405631,0.014329193,-74.88509867,-7.488509867,NaTi2BiO6
mp-17714,5.5334,-3.398091156,6.62564546,0.038428235,-413.463827,-8.269276539,Ho4(B2O5)3
mp-30110,0.1527,-1.557749503,5.066257919,0.01231149,-44.06675774,-3.672229812,SrLaI4
mp-619928,1.3186,-1.232578861,3.016630947,0.001226211,-174.3479718,-3.962453903,Zr(Se2Cl3)2
mp-978847,0.4258,-0.515853891,4.905621631,0,-14.64062044,-3.66015511,SrGaGeH
mp-15514,1.1893,-0.563857809,3.653630521,0,-80.07179021,-3.336324592,NaSe2
mp-558984,3.6787,-2.082363719,5.440284165,0,-131.0682472,-5.461176967,GaTeO3F
mp-757301,3.9269,-2.470292524,2.501419043,0.088005215,-379.0743408,-6.769184657,LiSn(PO3)3
mp-18332,2.3855,-2.073528869,5.605552251,0.001053411,-154.7877628,-5.528134385,Lu2ZnS4
mp-543001,0,-0.58912371,7.607774281,0,-128.1546259,-7.119701441,Zr5Sn4
mp-16600,5.6112,-3.309791684,6.01974177,0.018478381,-247.2192123,-8.24064041,Dy2B4O9
mp-22538,2.3394,-1.989451136,4.136498394,0.000921907,-74.16551131,-4.944367421,Li8PbO6
mp-581967,1.6747,-3.055720697,4.300420776,0.038385826,-878.4775884,-8.964057025,Nb2O5
mp-769008,0,-1.755782435,6.621929331,0.065756244,-158.9493669,-5.298312231,Li4Bi3O8
mp-638261,4.0155,-3.35357283,5.758162289,0,-249.7463515,-7.804573484,La2GeO5
mp-567178,2.3974,-0.673564782,5.47191178,0.001790881,-26.28085427,-2.920094919,PbI2
mp-776500,1.2945,-2.752654785,3.135128823,0.07850439,-157.7814043,-6.068515549,Li3V2(OF)4
mp-9061,0,-2.129726677,4.202387333,0.032154306,-21.19876006,-4.239752012,KPdF3
mp-905,6.0429,-4.515876214,5.807029193,0,-163.5104808,-6.812936698,LaF3
mp-21858,1.9105,-3.548973672,8.629546763,0.086490481,-152.6741459,-9.542134121,UO3
mp-773206,1.0325,-2.591817282,2.786097668,0.084794979,-177.4599931,-6.825384352,Li3CrSiBO7
mp-771902,0,-2.555947534,3.9641336,0.05775764,-202.940347,-7.247869536,Li4Ti3Cr2Fe3O16
mp-27202,4.1569,-0.197906298,1.089367143,0.020386858,-372.2054582,-5.169520252,B9H8S
mp-707151,5.0971,-1.789453585,1.691611625,0.01892197,-485.9624101,-5.650725699,Na2B4H20O17
mp-23077,0.1374,-2.322379087,3.72216048,0,-41.50869398,-4.612077109,Cs2UCl6
mp-976953,0,0.042584421,9.582206391,0.151203825,-40.61369377,-5.076711721,Ni3Te
mp-861965,0,-0.658474675,11.34664978,0,-28.40297931,-7.100744828,Ho2RuRh
mp-570053,1.3163,-0.893855775,6.523073387,0,-269.5013655,-3.546070598,Bi8AsAuCl9
mp-686183,1.9832,-1.622512764,8.634133063,0.037334957,-723.4517491,-5.696470465,Zn(Bi25O38)2
mp-21328,0,-0.274463654,10.84084598,0.09195095,-58.05021025,-7.256276281,HfSn
mp-505081,0,-0.750833701,4.444983499,0,-218.5126102,-6.828519067,Ti2NiP5
mp-13568,0.3371,-2.186034054,5.201926188,0,-73.00813922,-6.084011602,NdS2
mp-1501,0,-0.912979474,14.70581529,0,-97.66457966,-6.104036229,Al3Pt5
mp-696944,3.6021,-1.66431175,4.523686673,0,-36.16320951,-4.520401189,LaHBr2
mp-1377,0,-0.205085827,10.27771691,0,-16.22374589,-5.407915297,ThCu2
mp-644246,0,-0.604482803,7.723009675,0,-28.21039721,-5.642079442,EuH3Pd
mp-763003,3.1237,-2.97336949,2.408308188,0.091381396,-171.0892177,-5.702973922,LiMnF3
mp-23719,3.204,-0.118972106,1.060873929,0.01523942,-49.01818348,-3.50129882,BeAlH5
mp-23300,0,-0.942438196,8.467752158,0,-10.5482169,-5.27410845,NdBi
mp-776661,1.5159,-2.440050531,3.310470331,0.080706406,-108.7296145,-7.766401038,NbV3O10
mp-1594,0,-0.275212525,8.866275799,0.030364934,-34.00979348,-5.668298913,Ni2Ge
mp-16281,0.55,-1.804650522,6.750645447,0.00873114,-119.0404465,-5.410929385,Cd2Sb2O7
mp-708,0,-1.576930161,5.96970304,0,-12.7282936,-6.3641468,LaAs
mp-30492,0,-0.203349224,4.053197006,0,-16.82866349,-2.103582936,Na2CdSn
mp-1008726,0,0.427516726,4.542772349,0.827630343,-17.54237318,-5.847457727,Ti2Ga
mp-772105,3.8856,-3.242341406,4.110028598,0.075343235,-284.8965513,-7.913793092,Li2Zr2O5
mp-554688,0.5949,-2.242946956,5.299568224,0.011638955,-177.3089654,-6.566998719,Ba6Hf5S16
mp-561099,0,-2.111564071,7.832322264,0,-213.5632027,-7.364248368,Ba4Os6ClO18
mp-556578,3.2428,-1.036552819,5.406371403,0.010862533,-309.1225549,-4.293368817,Cd(IO3)2
mp-541168,5.4715,-2.941538736,3.877768861,0.008411333,-523.1942707,-7.266587093,RbTm(PO3)4
mp-866071,0,-0.187579487,15.58292503,0,-36.6434919,-9.160872975,MgTaOs2
mp-567913,1.0684,-0.492089843,5.509343914,0,-34.19591827,-3.419591827,CsAuSe3
mp-753519,0,-1.89587762,3.247444203,0,-151.1600524,-6.298335517,CuPO4
mp-34932,2.1864,-0.914464472,2.55517501,0,-15.93789706,-5.312632353,CaHN
mp-8683,0.3468,-0.445821762,3.163658271,0,-43.37510165,-2.710943853,K5As2Au
mp-756439,2.7355,-2.031024224,4.244022792,0.053332264,-57.94577672,-4.138984051,SrLaBr5
mp-763344,1.1398,-2.291946268,3.222688703,0.071470188,-85.41426541,-7.117855451,LiV3O8
mp-13026,0,-0.928077935,12.24305472,0,-46.57090956,-3.88090913,YbZnPt
mp-976885,0,-0.02868785,1.026524933,0.013951398,-11.01268762,-1.835447937,Li2Mg
mp-555132,1.9323,-1.569006481,4.26646873,0.000434701,-67.95603656,-3.088910753,BiXeF9
mp-635426,0,-0.826105105,12.08707248,0,-19.00924039,-9.504620195,GdAu
mp-773498,1.9929,-1.88570507,3.347256378,0.073054423,-295.6787457,-4.927979096,Na6Sn2O7
mp-778754,3.1726,-2.428573969,3.280546684,0.000739722,-334.2637243,-6.963827589,Li8MnFe7(BO3)8
mp-7651,4.6559,-3.81365057,7.070092452,0.035424854,-210.4911409,-8.770464204,ThSiO4
mp-631492,0,0.915416228,7.79407969,1.61621599,-14.37470892,-4.79156964,BaScIr
mp-861483,0,-0.658302383,10.25938117,0.041367068,-26.24254128,-6.56063532,Pr2IrPd
mp-557407,2.1426,-2.474131116,3.060425994,0,-274.2765595,-7.217804198,K3NaUC3O11
mp-31075,1.3168,-0.363130834,6.831710162,0,-54.76006229,-1.95571651,Hg3(SeBr)2
mp-697981,2.763,-1.536251486,4.921329511,0.001909775,-315.1749728,-5.252916214,Cd3H2CSeO8
mp-5859,5.508,-3.131721814,1.619977954,0.010523002,-538.2466701,-7.475648196,AlPO4
mp-541819,1.8304,-0.430865438,3.675529079,0,-205.7943273,-4.899864935,Rb2Hg(BSe)9
mp-562338,2.0194,-2.346847412,5.235687502,0,-235.6646643,-7.36452076,USeO6
mp-20329,0.2441,-1.413484127,6.843861438,8.74E-05,-39.3745976,-4.9218247,InAgO2
mp-21563,4.2985,-3.247574578,3.307975377,0.069527492,-413.9949276,-7.392766564,SrAlBO4
mp-771699,0.9844,-1.691543678,5.297728334,0.079046092,-164.9102966,-5.889653449,Sb2O5
mp-755074,0,-4.095995963,6.198332957,0,-47.73855289,-7.956425482,CeOF
mp-1019378,3.3491,-1.343598902,3.943280343,0.018845179,-56.83365816,-7.10420727,Al3GaN4
mp-758038,2.1408,-3.709009678,5.245922751,0.037129313,-247.0168747,-8.822031239,La2Ti3O9
mp-775275,0,-2.280384623,3.161739476,0.036175352,-237.9883514,-6.999657394,Mn3Sb(PO4)6
mp-774236,3.1149,-2.510173052,2.775866654,0.036841068,-180.4311371,-6.939659121,Li3CrSiCO7
mp-35739,0,-1.723368521,11.17528409,0.001705909,-85.27867329,-10.65983416,ZrUN2
mp-766267,4.0624,-4.004519465,5.376130778,0.001132298,-361.1144778,-9.027861946,Y7TmO12
mp-32586,1.7868,-2.449830088,5.370219269,0.013867702,-257.3807775,-6.434519438,Nd2S3
mp-558126,4.4533,-2.06955825,3.149121066,0,-199.382202,-6.230693811,LaH4S2NO8
mp-28645,0,-0.802493761,4.196142672,0,-36.28100949,-6.046834915,CaNiN
mp-30091,1.736,-0.424980281,2.577471454,0,-148.6766592,-6.758029961,MgB9N
mp-639900,0,-0.487931773,3.800702588,0.04954717,-221.8347743,-3.961335256,K(GeSe2)2
mp-17141,0,-0.588817618,8.678268287,0,-124.6899452,-5.667724784,Er3(AlNi3)2
mp-27563,1.4513,-1.908918027,5.792761719,0,-67.44133898,-5.187795306,Rb2In4O7
mp-765416,3.0311,-2.959075817,2.711388106,0.063074415,-230.7053833,-7.442109139,Li2Fe2Si8O19
mp-11470,0,-0.058597497,14.14408243,0.022717987,-6.84000229,-2.280000763,Hg2Pt
mp-34787,0,-0.548983982,6.113912953,0.005321805,-84.67444996,-4.456549998,Ag7NO11
mp-17250,3.2396,-1.838788607,3.071947785,0,-132.03646,-4.715587858,K3SbO3
mp-558713,4.6936,-3.210087783,2.275222145,0.019378831,-151.3730047,-7.20823832,LiAlSiO4
mp-973441,1.0587,-2.523786641,5.827342714,0,-129.3064055,-6.465320274,La(ErS2)3
mp-28755,0,-1.093290363,5.918071542,0.000187085,-56.435536,-9.405922667,GdCBr
mp-10510,6.0443,-3.561507593,4.265669431,7.74E-05,-112.72726,-7.045453752,BaAlBO3F2
mp-9361,2.686,-2.219202241,3.847726129,0,-21.74877004,-5.43719251,RbLaS2
mp-11038,0,-0.306949892,5.979508923,0.00297034,-70.00371802,-7.778190891,Zr6Al2Fe