id,band_gap,formation_energy_per_atom,density,e_above_hull,energy,energy_per_atom,pretty_formula
mp-758035,0,-2.901870823,2.833240825,0.079760985,-388.2515237,-7.466375456,Li3Ti3(PO4)4
mp-21365,1.4658,-0.8005411,4.405656603,0,-85.10066266,-4.255033133,InSbS3
mp-21423,0,-3.3888873,12.16307709,0.067409628,-58.28722438,-11.65744488,Pu2O3
mp-867004,0,-0.434686026,10.95298677,0,-236.7191093,-6.575530815,Th2Ni7
mp-560260,4.3605,-2.71530731,3.923379299,0,-316.5833117,-6.595485659,CsLa(SO4)2
mp-640578,0,-0.975497438,3.908629172,0.051308427,-110.6527595,-3.688425317,KTiI3
mp-864954,0.7705,-1.05303136,6.24624823,0,-65.16749567,-8.145936959,MgMoN2
mp-626787,1.5255,-2.120478129,3.794654466,0,-110.2867396,-6.892921225,VHO2
mp-13983,1.5971,-1.995870368,4.552366699,0,-30.94123252,-3.867654065,ZnPdF6
mp-626879,0.6553,-2.060690212,3.084196846,0.090704009,-357.0855345,-6.86702951,V3(HO4)2
mp-30673,0,-0.456001979,6.382989838,0,-54.3325411,-5.43325411,Ti2Ga3
mp-985585,4.6814,-2.065175374,2.010312542,0.030098265,-21.53006099,-4.306012198,Li3ClO
mp-771193,2.5467,-3.278385825,5.572481905,0.09244418,-320.517138,-7.28448041,Ba3Y2O6
mp-699558,3.3377,-2.38528139,3.407533154,0.002296281,-505.0155122,-6.824533949,K10Zr3Cd(MoO4)12
mp-764019,1.6074,-2.448888688,4.17015756,0.034621252,-103.6481988,-6.478012425,Li2TiNiO4
mp-19803,0.9135,-1.869215309,6.638827561,0,-72.81723791,-5.201231279,CdIn2O4
mp-27487,2.1793,-1.21775233,6.92298286,0,-99.65866558,-6.643911039,Li2ThN2
mp-568548,0,-0.459303444,11.20572273,0,-311.981141,-6.932914244,Mg10B16Ir19
mp-864780,0,-0.42736742,13.06339428,0,-21.50217707,-5.375544268,PaAlAu2
mp-13093,0,-0.638596032,7.526027731,0,-62.06522206,-5.172101838,La3Ni2Sn7
mp-24130,5.6011,-1.819343426,1.95598952,0.012683135,-125.3985372,-5.699933508,CaP2(HO)4
mp-555,0,-0.070987065,7.568511438,0.003438522,-76.27000273,-8.474444748,Fe8N
mp-14407,1.3385,-0.187999831,3.345896021,0,-193.776383,-3.027755985,Rb7NaGe8
mp-866063,0,-0.093201102,5.230661478,0.003018443,-12.9520138,-3.23800345,NdDyMg2
mp-780229,0,-2.322274914,3.861233479,0.045747638,-365.8388306,-6.307566045,Na6Bi2B4PO16
mp-623006,0,-0.428931465,10.14616548,0,-38.31308662,-5.473298089,UGa5Ir
mp-673059,3.933,-2.499054338,3.69895897,0.035147578,-295.7176465,-6.720855602,LiSbP2O7
mp-510697,0,-0.436892128,9.503948446,0,-168.7633225,-5.625444084,Zn5B3Rh7
mp-765597,2.7666,-1.56440976,2.981034913,0,-257.0874865,-5.355989302,HS2IO8
mp-864775,0,-0.329849638,12.55273226,0,-9.33351481,-2.333378703,HoAgHg2
mp-1008528,1.0859,-0.200107673,4.128913977,0.065632498,-24.21511997,-6.053779993,B2AsP
mp-996948,1.1067,-2.372925419,3.70098657,0.323304579,-406.1267297,-7.252263031,CaCr2O4
mp-16461,2.8781,-3.619608065,5.930507238,0.030184587,-433.6721859,-9.856186044,Gd2Si2O7
mp-388,0,-0.235844901,11.27659322,0,-16.61520659,-4.153801648,ErPb3
mp-1224,1.1911,-0.650060618,9.849066293,0,-23.32090751,-2.915113439,HgO
mp-29410,2.4427,-1.087928908,1.769814362,0,-88.57290268,-4.920716816,Li2B2S5
mp-4525,0,-2.200063901,6.249956842,0.010475012,-69.25927512,-6.925927512,SrRuO3
mp-560978,3.5745,-3.2027782,5.079606687,0.008178818,-691.3248316,-6.64735415,Ba4Al2O7
mp-770248,0.9401,-2.198270648,2.679382303,0.02837661,-311.1500926,-7.071593014,LiMnPCO7
mp-541272,3.385,-2.500861904,3.446222349,0.001459863,-246.2306893,-6.83974137,LiGe2(PO4)3
mp-753552,0,-0.916803468,7.614442882,0,-105.5082172,-5.275410862,Cu4PtO5
mp-29764,6.691,-2.529824074,3.155639543,0.00010183,-34.43333139,-4.304166424,RbHF2
mp-768770,3.8759,-2.371004289,5.404812081,0.043061195,-259.1532542,-7.853128916,Mg(ReO4)2
mp-555510,0,-2.687050488,6.520436169,0,-132.7839195,-6.639195973,Sr2YbRuO6
mp-30393,0,-0.679914681,13.63025588,0,-16.54462914,-4.136157285,LuInAu2
mp-546011,1.2068,-1.990444288,5.751669073,0,-49.15249013,-6.144061266,YZnAsO
mp-672212,1.6993,-3.037360485,4.202006321,0.031886511,-415.0368548,-8.830571379,NaNb13O33
mp-17807,1.908,-3.227792667,5.662858165,,-303.4574403,-8.429373343,LiUNbO6
mp-28383,2.4851,-1.288922744,2.037716755,0,-39.11969046,-3.259974205,KNaS
mp-560370,2.0163,-0.852872425,5.323567906,0,-127.4138847,-4.550495883,Ge(PbS2)2
mp-775211,3.6112,-3.3346306,8.836980383,0,-292.539665,-8.126101804,Ho2WO6
mp-780543,0.5368,-2.165804329,3.955773835,0.0901157,-98.29803812,-7.021288437,Li2MnCr3O8
mp-18036,0,-1.045711811,8.5920867,0,-140.0582583,-7.002912916,Th(NiP)2
mp-756927,0,-1.915725776,4.997520898,0.112982378,-146.9570039,-6.123208495,Li5Nb2Cu5O12
mp-757131,3.3548,-2.488372768,3.242872991,0.025050905,-237.3357884,-6.980464364,Sn(PO3)4
mp-980021,0,0.194742039,12.86163983,0.233095087,-15.02423635,-3.756059088,Yb3Os
mp-753162,0,-1.865564119,5.884198742,0.018959832,-31.58682052,-5.264470087,Li2BiO3
mp-773901,0,-2.376879945,2.702290376,0.086542079,-275.7333423,-6.26666687,KZnP2O7
mp-9785,1.9522,-3.08745342,8.545101503,0.019656397,-130.3560318,-7.242001768,BaHo2PdO5
mp-979936,0,0.2192754,5.03185599,0.2192754,-4.72594445,-1.181486113,RbYb3
mp-558990,5.6047,-2.861663532,2.713496296,0,-130.6324888,-6.875394147,K2Sr(PO3)4
mp-19071,0,-2.140761343,5.038632574,0.034814399,-95.57659202,-6.82689943,Co2SiO4
mp-557812,0,-1.571472641,4.834656812,0.006123137,-205.2221269,-8.550921953,Ti3O
mp-28368,1.7705,-0.98012753,4.841175205,0,-33.07347977,-2.756123314,TlAuCl4
mp-776880,1.4032,-2.36581939,3.410223398,0.063598279,-266.2932333,-6.657330833,Li2Fe2Ni(PO4)3
mp-2409,0,-0.17032256,9.354049464,0,-76.67646552,-5.476890394,Ni5Sb2
mp-730945,5.0879,-2.466512803,2.479676203,0.006848571,-535.6485946,-6.376768983,KAl2P2H5O11
mp-995122,0,-1.416119343,4.277936223,0.038833182,-21.29033427,-7.09677809,NbS2
mp-774530,2.2143,-3.52118386,4.507201074,0.027460984,-697.6442175,-8.507856311,Ba4Ti11O26
mp-989189,1.6073,-1.25782428,5.603227758,0.032170236,-27.51249806,-4.585416343,SbBrO
mp-27189,4.7516,-1.550221298,1.597880368,0.014696901,-173.4367744,-3.941744872,Si3Cl8
mp-557763,2.8046,-3.665264774,6.452418593,0,-377.244979,-8.573749522,Nd3NbO7
mp-753823,1.7974,-4.27608149,9.199391717,0.005158346,-113.2883343,-9.440694521,CeTh3O8
mp-20201,0,-0.638120789,7.234672451,0,-47.84672884,-3.987227403,NdZnSn
mp-22595,0,-0.966063916,9.789953686,0,-44.65785826,-7.442976377,UAsSe
mp-759356,5.1434,-1.385964017,1.615581217,0,-290.1524034,-4.533631303,AlH3NCl3
mp-571428,0,-0.382852233,6.130455796,0,-103.779813,-5.765545164,MgNi3B2
mp-867253,0,-0.338157457,9.877494408,0,-14.67008302,-3.667520755,LiZn2Ir
mp-677378,2.5927,-3.02867096,5.058908201,0.044709582,-134.7640307,-7.486890597,TiNbTl(O2F)2
mp-21622,0.1482,-0.433161601,3.746588652,0,-149.2937281,-3.110286001,Na3InAs2
mp-22470,0,-0.411061846,7.161635432,0,-101.5280673,-5.972239255,La(FeAs3)4
mp-541848,0,0.708323308,2.072865708,0.708323308,-644.7819548,-5.970203285,B
mp-30367,0,-0.554742141,4.384632714,0,-40.88382445,-2.920273175,Ca5Au2
mp-759207,1.2294,-1.56219979,5.790639643,0.030126452,-92.73694299,-5.455114294,LiSb(TeO4)3
mp-28178,2.2372,-1.820430824,2.32502553,0,-134.1523726,-4.192261644,NaNbCl6
mp-30761,0,-0.317869906,4.575942166,0,-23.61958156,-2.624397951,Li7Pb2
mp-978965,0,0.180908372,11.7629393,0.41752073,-27.2843346,-6.82108365,Th3Ni
mp-23404,3.007,-0.50789512,4.974698729,0.048373861,-95.79598175,-3.99149924,TlBrO4
mp-1001024,1.7768,-2.26911428,3.135797735,0.001633318,-88.56115473,-6.325796766,Y2MgS4
mp-770636,0.0546,-2.117421893,4.739550939,0.055452654,-179.58799,-6.413856787,Li4V3Co2Sb3O16
mp-653925,0,-2.513708416,6.232953007,0.020177419,-162.9318391,-6.266609197,Sr2DyGaCu2O7
mp-758245,3.273,-2.437302098,4.652479251,0.057873636,-242.210308,-6.055257699,Li3SiBiO5
mp-773707,0.9552,-2.753830092,3.760397683,0.035731506,-213.2015725,-7.614341876,Li4Ti3Mn2V3O16
mp-5568,0,-0.274966372,8.410063413,0.018801176,-124.1687255,-6.898262529,Nd3Co11B4
mp-974568,0,0.991784648,16.20923479,0.991784648,-74.5253559,-9.315669488,Re3Bi
mp-978522,0,-0.709660038,12.35597365,0.043310379,-31.75002719,-7.937506798,SmYIr2
mp-18719,3.2481,-2.700260681,7.263656279,0,-178.1358102,-7.422325423,KLu(WO4)2
mp-560899,5.5915,-2.331434868,2.37298913,0.009938922,-446.7290886,-6.569545421,CaB3H5O8
mp-4767,0,-0.72092431,11.11181383,0,-42.82296096,-8.564592192,Ce(SiOs)2
mp-19902,0,-0.484865114,10.05701115,0.011423869,-53.25566488,-6.65695811,UCuAs2
mp-974820,0,1.271414185,2.781577636,1.271414185,-8.32241753,-2.080604383,Rb3Tc
mp-757224,4.1911,-3.417988414,5.044883693,0,-544.1990973,-8.245440867,Th4P6O23
mp-733932,3.5032,-1.219805291,3.262102373,0,-199.5785568,-4.98946392,InH5(NF)2
mp-982384,0.0379,-0.710713451,6.914912793,0,-103.1371709,-4.29738212,TbH3
mp-542728,0,-0.206713979,8.679605181,0,-217.1004322,-7.486221801,Co21(B3Mo)2
mp-13530,3.6932,-2.822489695,6.301927795,0.020439001,-86.40957957,-7.200798298,SmAsO4
mp-756645,0,-2.975561463,3.453655624,0.022558308,-114.6515503,-7.165721891,Li5Ti3O8
mp-608106,1.7917,-0.349471444,2.713279988,0.017093748,-152.8631779,-4.246199386,P4S3I2
mp-18732,2.7244,-2.495918282,4.948903254,0,-73.34044163,-7.334044163,TiNiO3
mp-972524,0,-0.57504695,7.468444735,0,-44.08644209,-4.898493566,SmSiAg
mp-33318,3.372,-3.466741758,2.488705241,0,-407.3482536,-7.14646059,Ca11Al14O32
mp-771710,0.0511,-3.103644924,3.038393516,0.05709125,-288.6415987,-7.801124288,Li3Zr4(PO4)6
mp-631428,0,1.330286727,12.598411,1.365696518,-18.44570945,-6.148569817,TlCoW
mp-1725,0,-0.298451298,4.415863873,0,-10.88660468,-1.814434113,CaZn2
mp-673644,1.8722,-2.4566616,6.320041437,0.023436826,-255.4519439,-6.386298598,Tb2S3
mp-9583,4.3556,-2.879748331,3.205569082,0,-29.33393432,-4.190562046,K2ZnF4
mp-20380,0,-0.521860689,7.659636041,0.04221347,-82.91284111,-6.909403426,HoMnSi
mp-693892,1.1316,-2.754995574,3.741085386,0,-204.7651477,-6.398910865,Sr2CrClO4
mp-13911,0,-0.314263731,5.255411178,0.010351167,-15.36475951,-3.072951902,Ca(ZnGe)2
mp-776748,0.024,-2.178827609,2.842791992,0.069779865,-168.6991284,-6.747965136,Cr2P4H3O16
mp-861974,0,-0.745789716,14.99560969,0,-25.50891197,-6.377227993,PaCdPt2
mp-28731,0,-0.547244811,5.61782272,0,-319.8668786,-9.692935715,V6C5
mp-756402,4.6373,-3.011112234,4.121652017,0.019613619,-120.8176005,-7.551100033,YHO2
mp-33737,0,-1.507450744,5.290446468,0.019563868,-89.64870608,-6.403479006,Mn3Cu3O8
mp-558862,4.3844,-2.302854904,3.061600201,0,-265.6656995,-6.641642488,NaGe4(PO4)3
mp-567575,4.3921,-0.267790862,2.398878132,0.039032239,-269.7490167,-7.493028241,Cs2Na(C2N3)3
mp-30512,0,-0.575272207,10.4731382,0,-45.61569291,-5.068410323,CeTlPd
mp-540379,0,-2.358852153,3.329177871,0.051370233,-272.4814511,-6.812036278,SbP2O7
mp-13610,1.9585,-2.417510209,5.320585266,0,-32.83768123,-4.104710154,ZnPbF6
mp-20628,0,-0.126866261,4.413462257,0,-8.68798477,-2.171996193,NaIn
mp-676459,5.8457,-4.270041247,4.207113585,0.083069414,-61.57544453,-6.157544453,Ca2LaF7
mp-850988,0.0311,-1.881335289,4.842407063,0.092515836,-93.55006308,-5.197225727,Co3(OF2)2
mp-3448,6.9537,-3.564296131,3.001906011,0,-24.79780034,-4.959560068,KMgF3
mp-764405,2.1671,-2.000362456,2.6908478,0.01184962,-176.5772983,-5.885909944,KFeH2S2O9
mp-755451,3.1272,-2.015659534,4.315997485,0.068661432,-93.96429967,-4.27110453,BaLa2Br8
mp-29178,4.5803,-2.591126633,5.667238916,0,-144.3848037,-4.512025116,TePbF6
mp-581609,2.5484,-1.924283405,7.982767445,0.000233647,-169.7304324,-6.061801158,BiP(PbO2)4
mp-559057,3.4093,-2.705011418,4.778890837,0,-312.9829874,-7.824574685,NbTl(BO3)2
mp-773128,1.4011,-1.792562356,3.09205977,0.041316042,-238.5807495,-5.186538033,Li10Co4O9
mp-27693,0,-0.458309171,3.234134058,0.045923341,-161.728333,-8.086416652,Sc(BC)2
mp-561294,1.4759,-3.028014946,4.470803264,0.016082801,-91.64736269,-7.637280224,SrLi2Nb2O7
mp-740736,5.0552,-1.765623695,1.945124807,0.01951634,-616.1618542,-5.924633213,NaP3H10(NO5)2
mp-553903,1.7136,-1.67069169,3.246610726,0.012912102,-343.5392802,-4.294241002,KNa9In2O8
mp-626337,3.5641,-1.459539478,1.909917711,0.043669808,-270.3831155,-5.007094732,Sr(H8O5)2
mp-557938,3.2222,-3.793669975,4.078460847,0,-56.22409375,-7.028011719,HfVF6
mp-558165,2.1067,-1.336044081,2.373402013,0.090160477,-150.037627,-4.688675843,SbC(Cl2O)2
mp-5909,1.9737,-1.983974041,4.560904526,0,-227.7712734,-5.423125558,Zn2GeO4
mp-636565,0,-0.318737585,9.392935506,0,-26.38311953,-3.769017076,YbIn5Ir
mp-540050,1.5585,-2.418845709,3.364650192,0.043202701,-484.0832792,-7.118871754,Fe3P3O11
mp-542694,2.5131,-0.845081968,4.733626099,0.008411546,-206.9968781,-4.312434961,HI3O8
mp-25486,3.0717,-1.213315032,3.396595374,0.011390885,-203.8715474,-4.854084462,CoH8(IO5)2
mp-4482,2.6577,-2.077236524,4.706503947,0,-57.06235188,-5.706235188,NaSbO3
mp-767255,0.8188,-2.473254986,2.386231499,0.092511474,-273.4061625,-5.943612229,Li10Cr(SiO5)2
mp-4630,0,-1.873818189,4.881385608,0,-148.0164765,-6.167353188,Li2RuO3
mp-974925,0,0.023598793,5.134348155,0.025314431,-24.07285285,-6.018213213,NdY3
mp-628773,0.5078,-0.362957402,4.771146379,0.069930392,-16.44962332,-4.11240583,SnSe
mp-21021,0,-0.510320159,6.525663051,0.063989201,-100.2345359,-7.159609706,Mo3Se4
mp-973843,0,-0.544987845,11.48498079,0,-28.44443463,-7.111108658,Pa2SbTe
mp-1001787,0,-0.140049503,9.54412786,0,-24.50898442,-6.127246105,LiRh3
mp-13139,0,-0.532481823,4.227865087,0,-59.86978285,-3.741861428,SrLiGe2
mp-1831,0,-0.450312557,13.41846931,0,-20.75403685,-3.459006142,SrAu5
mp-560322,2.0797,-1.32898281,2.391636775,0,-157.6869851,-5.631678039,K2RuN3Cl3O5
mp-4459,0,-0.07531977,7.788634579,0.016347911,-553.0609653,-8.133249489,Ce2Fe14B
mp-38152,1.7783,-1.926429803,6.41799232,0.016792816,-77.11951569,-5.508536835,Sr(SmSe2)2
mp-991676,0.9817,-0.287885924,6.157086116,0,-37.28376389,-4.660470486,NbCu3Te4
mp-849246,2.5158,-2.968330942,4.641201275,0.040627507,-123.1754251,-7.698464069,Ti2CdO5
mp-672256,0,-0.523894697,5.201463486,0.012510716,-182.4803371,-5.702510534,Y5Ga3
mp-28196,4.7228,-1.452551217,1.487431211,0.004853823,-292.7532339,-4.879220566,KH9O5
mp-24202,0,-0.58299983,8.244966471,0,-178.6253244,-4.70066643,Th4H15
mp-975892,0,-0.28273708,6.762120149,0,-13.17631188,-3.29407797,PrMgAg2
mp-1044,0,-0.629173306,20.3431021,0,-40.40157012,-10.10039253,UIr3
mp-554443,1.1292,-1.723822363,3.069121905,0.004245175,-658.816999,-4.84424264,Na6Se2O9
mp-567543,0.2379,-1.290337645,5.445825212,0,-82.99291087,-3.458037953,UHg3(TeCl3)2
mp-762529,0,-1.706057664,4.04639305,0.109359514,-103.7172319,-6.101013638,Li2(FeO2)5
mp-561725,3.8486,-2.621444859,3.690840692,0,-159.0751588,-6.628131617,CsBO2
mp-770524,0.3503,-2.299355693,4.072876789,0.086782812,-199.5107141,-7.125382648,Li4Mn3V3Cr2O16
mp-18230,0.1442,-0.258100959,6.938034785,0.017911825,-60.83237197,-2.765107817,Si(Hg2Se3)2
mp-3762,1.0305,-0.940552037,3.872397858,0,-42.75917259,-5.344896574,VCu3S4
mp-8621,0.9416,-0.910429809,5.093526612,0,-19.80864541,-3.961729082,K2PtSe2
mp-770972,0.3289,-1.258901749,5.819970381,0.010229373,-279.9716228,-4.999493263,Li2Ni3BiO8
mp-30735,0,-0.717136993,8.704489043,0,-81.3111944,-5.08194965,Ho5Sn3
mp-972793,0,-1.034211781,3.321345612,1.707142788,-54.6476695,-6.071963278,Si2B2O5
mp-3283,3.5558,-2.846445962,4.068307445,,-144.4978439,-7.224892194,RbNbO3
mp-753539,3.354,-2.149384676,4.297618492,0.071490222,-64.88986229,-5.407488524,SbOF
mp-24263,5.2102,-2.243246256,2.194285541,0.002730803,-191.4049312,-5.981404101,KP(HO2)2
mp-694981,4.9472,-2.581540578,2.122285694,0,-345.8598366,-6.404811788,Na4Al3Si3B(HO3)4
mp-776442,2.8288,-1.606984713,4.860851232,0.048729798,-148.0793331,-3.701983328,Ba2YI7
mp-971684,1.1886,0.078422021,1.943883709,0.078422021,-235.7494214,-8.419622193,C3N4
mp-20513,0,-0.256039853,10.42051416,0,-131.9610554,-7.331169746,U3MnSb5
mp-28166,0.889,-1.477618575,2.394665292,0,-16.57452581,-3.314905162,K3BrO
mp-772632,0,-1.314205704,5.025567524,0.079530744,-149.0750345,-5.324108376,Li4Co5Ni3O16
mp-778504,0,-2.859782725,3.254242597,0.128015039,-279.944802,-7.776244501,Ti5Ni(PO4)6
mp-760657,0,-2.89516878,4.95617894,0.061467505,-151.7491932,-7.587459659,Yb(BO2)3
mp-1400,0,-0.17230705,16.35379852,0,-72.7808024,-12.13013373,HfW2
mp-765102,0.1863,-2.727658093,2.66998308,0.069680907,-262.5182107,-7.29217252,LiTi(PO3)4
mp-11854,0,-0.80261827,8.982709222,0,-86.2524815,-5.390780094,Er5Ge3
mp-744148,2.8791,-1.318221479,2.047723183,0.003457712,-476.992159,-5.678478083,MnH8(NO5)2
mp-620652,0.3135,-0.88331734,3.107832649,0,-123.4688634,-4.409602264,NaSr2AlP3
mp-11840,0,-0.284137021,5.466173948,0,-21.2861651,-2.660770638,BaAg
mp-761819,1.2894,-1.981538147,4.700163986,0.056348903,-117.3885023,-5.869425116,Li4VFe(TeO6)2
mp-961669,0,-0.087989633,10.1890788,0.460016511,-19.46460562,-6.488201873,NbGaPt
mp-777916,0,-1.687622366,4.880672071,0.014523325,-158.2711596,-5.652541414,Li4Fe3Cu3(TeO8)2
mp-18376,3.2555,-0.870253249,3.123208551,0.077342549,-300.7995736,-6.836353945,KHgC3(NO)3
mp-19774,0,-0.49637898,6.794294497,0,-22.85668731,-4.571337462,Eu(CdSb)2
mp-22279,0.0014,-3.221550023,6.301778808,,-80.04965846,-8.004965846,Ba2EuNbO6
mp-942704,2.7231,-1.961166815,3.170570652,0.001947932,-210.5227979,-5.847855498,LiCoHSO5
mp-984700,0,0.083288673,5.218194919,0.083288673,-25.00332099,-6.250830248,CeY3
mp-567931,0.4899,-0.205465544,5.226638042,0,-37.26349722,-3.726349722,InSiTe3
mp-1002106,0,-0.6314423,12.8380488,0.056908877,-16.39525436,-8.19762718,HfPd
mp-8285,2.1049,-1.983647427,5.970667487,0.034688486,-56.98611148,-5.698611148,ZnGeO3
mp-31326,0,-0.075195954,3.873200102,0.003200082,-18.55834836,-2.062038707,Mg2In
mp-3348,0,-0.503924353,9.287769712,0,-75.84839677,-6.320699731,LiBIr
mp-601,0,-1.513797714,5.422781518,0,-13.22107123,-6.610535615,PrP
mp-6474,2.7812,-3.281081904,5.908807551,,-111.1821283,-7.412141887,Ba3MgNb2O9
mp-770778,1.3705,-2.436104473,4.771343328,0.007353584,-159.5227086,-7.976135428,VCrO3
mp-570904,0,-0.325712198,8.723198525,0.016409338,-31.12863641,-5.188106068,GaNi2
mp-1364,0,-0.435299219,6.058789148,0,-52.46495627,-6.558119534,YNi
mp-780204,1.5278,-2.288161088,2.521163,0.02359932,-158.0701746,-6.586257275,LiMnP4(H2O7)2
mp-10886,0,-0.156986706,4.630631039,0.034085124,-20.22782761,-4.045565522,Al3Cu2
mp-672307,0,-0.950962508,10.6569956,0,-49.280011,-5.475556778,NdInPt
mp-1006882,0,2.104852903,5.91157412,2.104852903,-5.93050213,-2.965251065,CdC
mp-778141,1.0092,-2.456987856,8.089641013,0.027109028,-293.7896593,-6.677037712,Sm2Pb2O7
mp-780485,1.3803,-2.512089733,2.950360962,0.031604514,-359.3319657,-6.910230109,LiVP2HO8
mp-5000,0,-0.248823267,7.532884213,0,-18.78864887,-3.757729774,Tl(CuSe)2
mp-29380,0.9645,-0.688206753,3.429711304,0,-132.7549953,-3.318874883,K2Te2As
mp-865517,0,-0.621330071,8.757738341,0.02357216,-24.9194071,-6.229851775,YZnRh2
mp-24128,4.0856,-1.499222652,3.721802069,0,-130.5063267,-6.525316333,ReH4NO4
mp-977385,0,-0.327035744,11.33822387,0,-23.96820865,-5.992052163,NpH3
mp-6610,4.1662,-0.365069792,1.953339304,0.059603334,-161.0458316,-6.710242985,K3Cu(CN)4
mp-5364,0,-2.97045442,6.105075861,0,-71.47776425,-7.147776425,YbBO3
mp-25257,0.0356,-1.813827153,5.307943394,0.025172269,-213.4640705,-5.206440744,Li15Bi4(PdO10)2
mp-530545,0.6203,-0.430767866,5.311679745,0.025133059,-267.720704,-3.718343111,In4GeSe4
mp-504476,0,-1.866808049,4.475984656,0.003361914,-187.4762167,-5.858631772,Cu2PO4F
mp-684966,0,-3.7513962,7.66047189,0.064751461,-341.4848704,-8.130592153,Tb8O13
mp-777615,3.3325,-1.899961285,3.312832909,0.022897283,-813.3141775,-5.980251305,Sb2(SO4)3
mp-28840,0.1258,-1.105324007,5.106894346,0,-430.272736,-5.3784092,Y4RuI5
mp-567614,0,-0.603426946,8.10200624,0,-56.02222406,-5.602222406,Tb2Co2I
mp-572822,1.7,-2.995531511,1.931694318,0.527847954,-101.3462091,-8.445517423,TiO2
mp-30223,0,-0.49909534,6.555262114,0,-61.57476149,-6.157476149,La2Fe2I
mp-861904,0,-2.105957458,4.375358471,0,-155.3740018,-6.473916741,La3AlCrS7
mp-542632,0,-0.406089733,8.616211547,0,-41.34768899,-10.33692225,GdNi
mp-5335,0,-1.632763274,8.176827533,0,-106.1039029,-7.578850209,U2PdS4
mp-864634,0,-0.272404536,7.984704441,0,-14.12445247,-3.531113118,EuCd3
mp-556655,4.864,-2.928894396,2.273446661,0,-218.317564,-6.822423876,Li2AlBO4
mp-1008926,0,0.11738041,4.89703506,0.290788958,-12.54435817,-6.272179085,CrTe
mp-31321,3.5567,-0.223900241,2.201073872,0,-270.8681731,-8.46463041,La(C2N3)3
mp-756440,1.5499,-2.496758955,10.36134452,0,-156.5954701,-7.117975912,Er2Pt2O7