id,band_gap,formation_energy_per_atom,density,e_above_hull,energy,energy_per_atom,pretty_formula
mp-754659,2.7131,-2.86196156,4.907039638,0.062010476,-154.2448966,-9.640306038,Zr3N2O3
mp-720642,5.3518,-2.245501287,1.986964403,0,-390.4014144,-6.50669024,NaB3H4O7
mp-560908,0,-1.145611926,4.280442926,0.252938366,-98.22914729,-7.016367664,V3S4
mp-567159,0,-0.334949006,4.076371697,0,-476.2838137,-4.493243525,Dy6Ti4Al43
mp-532676,2.9523,-1.7996501,3.344981185,0.008608005,-400.2306634,-5.717580906,LiMgAl3(SeO4)6
mp-569462,0,-0.614306961,6.219945578,0.031004843,-372.2280232,-5.816062862,Pr15Si10Ni7
mp-27428,3.0773,-0.858178893,2.830785812,0.029492461,-99.17633291,-4.132347205,KBrO4
mp-569943,2.5687,-1.084815058,3.80896829,0.005686168,-64.46164113,-2.685901714,K2AgI3
mp-542449,0,-2.140790009,2.525690486,0,-69.5237632,-5.347981785,Sc5Cl8
mp-554515,3.2647,-1.910550356,1.828219422,0.015959151,-413.3366142,-6.888943569,KScH4(C2O5)2
mp-567712,0,-0.588690777,7.490172134,0,-36.56498866,-6.094164777,PrCoGe
mp-849325,1.9251,-1.037355397,2.437032264,0,-90.02027136,-3.75084464,SbH4NCl6
mp-15339,0.6244,-0.966273944,4.560395666,0,-60.81488933,-4.343920666,Sr3As4
mp-774658,3.2128,-2.407981985,3.606048562,0.081390398,-270.5321946,-6.441242729,LiSnPO4
mp-777047,4.6352,-3.297170804,7.196215978,0.070054918,-28.02766452,-7.00691613,LiTmO2
mp-21464,0,-0.275035943,14.10542947,0.006308845,-108.2299439,-9.019161988,CoReB
mp-25896,0.1238,-2.282228113,3.708815822,0.127994273,-269.4164895,-6.735412238,SbP2O7
mp-632502,0,-0.504801883,7.849160223,0.001255223,-135.7096985,-6.785484926,Zr2InNi2
mp-626785,3.6782,-1.614645065,2.164813114,0,-26.84084274,-4.47347379,KHO
mp-18907,0,-3.044967689,3.604812548,0.007287909,-127.5357541,-7.085319671,Ca2MnAlO5
mp-567817,0.3467,-0.46368022,6.83581142,0,-59.85743171,-4.988119309,HfGeTe4
mp-643359,2.5307,-0.483940757,2.803746973,0.012395115,-102.7968914,-4.895090064,Rb2Sn(H2N)6
mp-754117,4.8391,-3.012455427,4.294972619,0.018270426,-60.4195458,-7.552443225,YHO2
mp-7480,3.6931,-3.112226027,7.349331331,0,-26.44413578,-6.611033945,RbLuO2
mp-780399,0.0215,-2.413980603,3.289670422,0.08133599,-372.0741657,-6.415071822,Na6B4Sb2PO16
mp-774397,0.4632,-1.726693032,4.82429451,0.079884837,-278.3991651,-6.052155763,Li4Mn2Co5O12
mp-2783,0,-0.554364793,13.24985895,0.001968576,-61.59865165,-10.26644194,Ta2Si
mp-771336,4.4621,-2.524142715,2.617427769,0.023451453,-165.3071382,-6.357966853,Na3MgPCO7
mp-616490,0.0424,-2.758132615,3.20580063,0,-498.5668758,-6.924539941,KYb(PO3)4
mp-5590,0,-0.512920476,4.447065706,0,-37.92344756,-4.213716396,YMgGa
mp-11215,0,-0.501270769,7.771607762,0,-29.77911063,-4.963185105,CeAgGe
mp-569804,0,-0.826503493,8.890696571,0,-226.4599522,-6.290554229,Er5Zr3(Ni4As3)4
mp-631497,0,0.718129627,6.39157796,0.718129627,-8.2252149,-2.7417383,BeInBi
mp-18308,3.7859,-2.72422782,3.469446339,0,-169.1876407,-6.507216948,CaZn2(PO4)2
mp-1019526,5.3993,-3.170646518,4.08204341,0,-209.9256739,-7.77502496,Ba3Si2(B3O8)2
mp-772297,1.1667,-1.84838878,2.672020397,0.06796406,-137.9610719,-6.270957812,Li2Cr2O7
mp-867745,2.328,-0.793029874,4.531548958,0.041112575,-66.68400269,-6.668400269,Ge2N2O
mp-971799,0,-0.49396025,10.41411689,0,-13.65604995,-3.414012488,DyYHg2
mp-770706,0.9829,-2.30857156,2.913019234,0.101796071,-160.7056624,-5.739487941,Li6MnAlO6
mp-8943,1.1225,-1.585125646,6.560004429,0,-39.32931533,-3.932931533,PtF4
mp-3759,3.6483,-2.5593035,4.764605923,0.019732276,-63.40568848,-6.340568848,MgGeO3
mp-675797,0.6033,-1.83668335,5.946568997,0.008671251,-212.9036257,-5.069133946,Zn7(SbO6)2
mp-770388,1.6179,-1.796993856,4.774802659,0.069303685,-222.008183,-6.166893971,RbFe3O5
mp-20381,0,-0.722186477,11.3167778,0,-121.977587,-6.776532613,HfGaPd
mp-539,1.6981,-1.061926707,3.436496281,0,-43.52845289,-4.352845289,Ga2S3
mp-865950,0,-0.20367232,8.930826535,0,-26.85666071,-3.357082589,AcAg3
mp-745175,3.0459,-1.42982905,1.749958527,0,-214.1536539,-4.867128499,CrH12(ClO2)3
mp-706400,5.5979,-2.382091528,3.09663539,0,-380.9832938,-6.349721563,BaP2(HO2)4
mp-568048,0,-0.324306879,14.89759391,0.016435775,-751.2378359,-10.58081459,Hf54Os17
mp-14912,2.2308,-3.191894538,5.646203567,0,-486.7228706,-7.605044853,La4Si2Se3O7
mp-975588,0,-1.620415453,12.134553,0.853649124,-41.16992289,-8.233984578,PuPtO3
mp-20182,0,-0.47066984,10.64742823,0,-47.70304509,-9.540609018,GdRh3C
mp-1018177,0,-0.028307839,5.578447515,0.018866076,-28.82650194,-9.60883398,EuC2
mp-541747,4.5983,-1.952550451,1.933664921,0,-259.5040495,-4.990462491,MgGeH12(OF)6
mp-21689,0,-0.696121856,9.531937642,0,-207.8334732,-5.773152033,CeGe3Pd5
mp-766098,2.4673,-2.870359577,2.973885137,0.005805482,-264.0820168,-7.54520048,LiTi3Sb(PO4)6
mp-769965,0.2027,-1.946848654,4.239139562,0.084449166,-183.7071037,-6.560967988,Li2Cr3CuO8
mp-6208,4.9937,-3.411200377,3.024266183,0.00037248,-178.2080706,-7.425336275,Ca2BeSi2O7
mp-31234,0,-0.633685984,10.1381398,0,-246.9894404,-6.499722116,Ca4As7Ir8
mp-978828,0,-0.026087498,7.637138494,0.135655424,-15.52622414,-3.881556035,Sm3Zn
mp-775217,1.616,-2.300065313,3.5555002,0.017015906,-229.7129843,-6.756264245,CoSb3(PO4)6
mp-540363,1.2088,-2.550181414,2.965320676,0.096474846,-146.607029,-7.330351451,VP2O7
mp-27133,1.4876,-0.735732855,4.037435354,0,-220.6408845,-4.596685093,BiPS4
mp-1395,0,-0.23885305,9.212917721,0,-18.82293056,-9.41146528,VRu
mp-15751,3.4394,-3.556188703,5.375041195,0.014427021,-126.5800736,-7.911254597,Ba3Y4O9
mp-755723,0.9284,-2.570989818,9.267156802,0.00137159,-148.8071212,-6.763960053,Er2Pb2O7
mp-26585,3.5194,-2.57498169,3.340887877,0.026334798,-396.3369031,-6.605615052,Li5Sb2P5O18
mp-622210,0,-2.183603313,6.420496887,0.018952445,-79.04540507,-6.080415775,Ba2LaCu3O7
mp-10070,3.1968,-2.647113094,3.738944984,0,-384.3198813,-6.862855023,BaAg(PO3)3
mp-561157,4.4422,-3.380625102,4.237683021,0.020662469,-665.6445768,-7.9243402,Sr3Y2(BO3)4
mp-639741,5.6644,-3.276340322,1.407475757,0.012810694,-1137.944089,-7.902389505,SiO2
mp-753048,1.8367,-2.781990216,5.430199603,0.044401164,-136.5123806,-7.584021143,TiSnO4
mp-754144,2.7161,-1.518042829,3.795423531,0.076111222,-53.22714762,-3.801939116,BaYI5
mp-541761,2.4614,-1.416534198,2.831337641,0.116421304,-184.9843589,-4.999577268,Zn3As2(HO)16
mp-984761,0.6526,-0.313440459,3.799534321,0.003197771,-8.30956305,-2.077390763,CsRb2Sb
mp-646420,0,-0.678703853,8.778844509,0.018609928,-60.73888917,-6.073888917,Nd2InRh2
mp-768820,3.4604,-2.481728377,4.289898225,0,-312.473791,-6.509870645,Li3Bi(BO3)2
mp-558894,1.9989,-3.025023432,6.275768007,0,-246.478017,-7.249353441,Ba4Ti2PtO10
mp-29089,0.0534,-0.818376968,4.801681584,0,-223.9014571,-5.597536429,Sr2GeN2
mp-759432,0.6516,-2.352165224,3.083001284,0.067849613,-372.8187913,-6.657478416,LiCu(PO3)3
mp-3804,0,-0.932495373,6.262843973,0,-35.69815716,-7.139631432,Sr(PRu)2
mp-767955,0,-1.575125325,4.305330306,0.046326159,-81.84429405,-5.45628627,Li3Fe2(NiO4)2
mp-6879,0,-2.030289607,6.158074509,0.015737043,-64.07572354,-5.339643628,Ba2CaCu2HgO6
mp-5773,0,-2.205813666,6.628814848,0,-104.6967801,-6.979785337,BaRuO3
mp-30147,0,-0.988453852,6.617445422,0,-48.11570523,-8.019284205,ZrTiAs
mp-556820,4.6078,-3.228278995,3.885714306,0,-216.5597832,-6.767493225,Sm3Si2Cl5O6
mp-558576,3.7704,-2.530401857,4.276396425,0,-267.0130286,-5.56277143,ReSb(OF4)2
mp-569896,0,-0.124907008,6.11511437,0,-78.97913062,-1.794980241,K14(Tl7Cd3)3
mp-690521,0.0564,-2.089235733,2.314099677,0.439653586,-29.84100736,-4.263001051,K3CrF3
mp-5637,2.0794,-2.449941892,5.370847184,0,-84.83791254,-5.302369534,SrZnO2
mp-18848,3.2644,-2.991901566,6.15251418,0.009175208,-68.85857461,-6.885857461,Sr2MgWO6
mp-542,0,-0.539771445,7.32555552,0,-3.0672867,-1.53364335,SrHg
mp-19485,2.059,-3.248390631,7.079172435,0,-364.3973961,-9.589405161,Ba5Gd8Mn4O21
mp-10394,0,-0.085358612,8.202507654,0.0648859,-43.25104048,-7.208506747,CrCoGe
mp-1941,0,-0.362452905,8.621636084,0.036305831,-9.53383094,-4.76691547,GaNi
mp-23357,2.2583,-2.371476329,6.30189726,0,-214.559838,-5.959995501,Sr2Bi2O5
mp-30926,4.4896,-3.103004671,3.650519799,0,-491.6081251,-8.193468752,LaB5O9
mp-13634,7.0876,-3.683446153,3.73337463,0,-98.29169465,-5.460649703,Cs2LiAl3F12
mp-22337,0,-0.442225902,11.55548028,0,-124.8019044,-7.800119028,Hf5Ga3
mp-697820,0,-2.650979531,6.600138881,0.07032428,-275.7989164,-6.894972909,BaLaMnInO6
mp-545548,4.9268,-3.372954314,4.554594425,0,-96.98518346,-8.082098622,BaHf(PO4)2
mp-703273,3.9748,-3.296431561,4.34217704,0.010297031,-238.5167194,-4.770334387,KBaLiZnF6
mp-5504,4.3838,-2.700679095,4.099746666,0,-149.3308332,-7.466541658,BaCO3
mp-557195,1.9568,-3.17472149,4.007698354,0.000687827,-514.0561487,-8.032127324,KCa2Nb3O10
mp-29456,3.9553,-0.765781923,3.356799749,0.009863303,-64.00846456,-5.334038713,Rb2IN3
mp-755044,4.0357,-3.762810037,6.095905856,0.049268304,-109.0051104,-7.786079314,CaTb2O4
mp-23774,2.5836,-0.360790788,1.574960225,0,-61.84614465,-3.092307233,K2LiAlH6
mp-699570,0.7856,-0.983221439,4.588283651,0.075732001,-312.3271948,-3.904089935,VTe4Cl4O
mp-780474,2.8421,-2.449514046,3.252236398,0.003993712,-253.6410963,-7.045586007,Li3MnFe2(BO3)3
mp-758101,0,-2.369612053,3.111810485,0.088132899,-74.41867365,-4.377569038,Li4Cu3F10
mp-764913,0,-2.050758928,4.610679934,0.056542019,-206.8057375,-6.893524582,Mn2O3F
mp-27872,0,-3.238622616,3.926322442,0.016874079,-113.9492175,-8.139229821,MgTi2O4
mp-567917,1.4432,-0.241384402,5.522773265,0.000719491,-323.4849863,-4.043562329,TlBi(PSe3)2
mp-780216,0,-1.949418581,3.757134585,0.049646516,-183.4447494,-5.732648418,Li5Fe3O8
mp-31964,4.101,-2.645016374,2.594044466,0.02910759,-267.8116304,-7.047674484,Li2Mn(PO3)4
mp-22830,0,-0.981152241,9.209746615,0,-398.678731,-7.382939463,DySi3Rh5
mp-818,0,-0.823929781,7.763959769,0,-57.68045859,-7.210057324,SiRh
mp-554505,5.3326,-2.940710218,3.554742251,0.009461696,-261.9546794,-7.276518873,KHo(PO3)4
mp-764879,1.448,-2.966398045,3.299999521,0.00195201,-205.0307737,-6.407211678,V4(OF3)3
mp-781954,0.8126,-2.477595414,4.20092758,0.077590899,-171.230634,-5.707687801,Fe5(OF4)2
mp-1007755,0,-0.5399257,15.89523734,0,-28.61540168,-7.15385042,HfAu
mp-2025,0,-0.243644992,6.088097658,0,-30.06360031,-5.010600052,HfBe5
mp-30102,1.2578,-1.893822268,3.718460352,0.018809716,-93.9242925,-3.913512188,BaPdCl4
mp-862362,0,-0.747367035,9.240596009,0,-32.06984801,-8.017462003,Sc2TcPt
mp-3291,0,-0.074228751,7.649715236,0,-38.23465646,-3.186221372,AgTe4Au
mp-684641,0,-0.260419184,6.398008874,0.300857673,-148.1573648,-7.055112609,Fe2S
mp-863705,0,-0.340017639,6.05981636,0,-15.48799895,-3.871999738,Pm2MgGa
mp-776086,3.3912,-2.749703284,3.825522467,0.020866917,-198.316818,-6.610560599,CaGeO3
mp-541732,5.1491,-3.236096103,6.272281362,0.001943115,-288.233433,-5.337656167,Al3Pb5F19
mp-721317,0.7686,-1.82389805,2.799094642,0.001492089,-207.1641878,-5.451689153,Na2CuH4(SO5)2
mp-764262,0.1167,-1.721382029,4.645630076,0.093703393,-225.3140914,-5.632852286,Li10FeCo9O20
mp-568506,0,-0.683859922,6.878055492,0,-52.12446944,-5.212446944,Pr2Ni2I
mp-30307,0,-0.747415131,11.59036678,0,-54.27861644,-6.030957382,DyBiRh
mp-555735,0,-2.087394412,7.893817278,0.025922275,-135.9293573,-6.796467864,CaIrO3
mp-996966,0.6239,-1.017363213,4.410687128,0.025967823,-16.46129113,-4.115322783,KAgO2
mp-865731,0,-0.419457655,8.566684504,0,-10.97560832,-2.74390208,Li2HgPd
mp-889,0,-0.46463489,5.905971853,0.018687367,-58.87666218,-8.41095174,Cr3B4
mp-674831,0,-0.246484377,5.280753105,0.115492964,-74.41473725,-4.134152069,Cu2S
mp-707735,1.3088,-1.080731708,3.367403578,0,-107.1718961,-3.969329484,MgH12(I4O3)2
mp-761572,0.2076,-2.523681513,4.182989896,0.058927456,-54.04417986,-6.755522483,Li2TiCoO4
mp-23372,2.712,-1.945043079,8.218647913,0.011347052,-133.5913299,-6.072333179,Sn2Bi2O7
mp-15217,1.8739,-1.378252073,3.864146283,0,-83.20177276,-5.200110798,Rb2TaAgS4
mp-626450,5.6712,-1.938961021,2.023566945,0.014070133,-190.1854131,-5.943294158,PH3O4
mp-19292,1.9838,-1.657311138,5.419677475,0,-54.80596922,-6.089552136,Co(AsO3)2
mp-696931,0,-1.157469348,5.370216955,0.025285791,-89.4895552,-4.971641956,TlCuHSeO5
mp-2385,0,-0.123490883,11.33718773,0,-62.99867502,-10.49977917,TaCr2
mp-27453,3.4837,-2.160818704,3.283949467,0.022652085,-73.09310777,-5.220936269,Li7SbO6
mp-771642,3.5578,-1.644843312,4.015483,0.047733689,-117.1533871,-3.254260752,Sr2CaI6
mp-772018,2.6721,-1.640674967,4.723487,0.048187484,-188.9658914,-3.633959451,Ba3YI9
mp-2778,0,-0.336410306,9.484832296,0,-8.07955597,-4.039777985,HoAg
mp-643749,6.5977,-3.741019407,2.610411898,0.001852394,-104.3175062,-5.215875311,KCaF3
mp-554638,0,-2.186148317,4.796096207,0,-152.3383313,-6.924469605,Ca2Ru2O7
mp-21748,0,-0.982107859,9.147839395,0,-398.8624591,-7.386341835,TbSi3Rh5
mp-546864,3.9576,-2.47708093,4.151848129,0,-63.85758315,-9.122511879,Y2C(NO)2
mp-541148,1.9806,-3.007330554,4.680019136,0.000168669,-288.9016081,-8.025044669,KUVO6
mp-5369,0,-0.647753173,9.444443143,0,-44.06806744,-7.344677907,PrB2Rh3
mp-976319,0,0.3279795,6.855455211,0.3279795,-13.76066888,-3.44016722,NaHo3
mp-978092,0,-0.586707844,7.33059208,0,-40.95059502,-5.118824378,PrCuGe2
mp-571039,0,-0.738919141,4.518631148,0,-52.58118939,-4.381765783,CaAlPd
mp-19478,2.0141,-2.144917274,4.40198057,0,-342.2775491,-6.582260559,VAg2(PO4)2
mp-18662,5.0285,-3.700107067,5.80712795,0,-361.1713679,-8.20844018,Ho2Si2O7
mp-4176,0,-1.03599743,10.47694032,0.087850297,-33.07087081,-6.614174162,La(SiPt)2
mp-24266,3.0077,-1.192790668,2.348358961,0,-147.9381649,-6.164090205,Ca2BHN2
mp-10769,0,-0.3195111,7.83433745,0.60617479,-20.56818962,-3.428031603,BaSbAu
mp-1392,0.7456,-0.242551816,3.490671516,0.003192257,-102.5605677,-4.273356989,ZnP2
mp-3141,0,-0.754284235,10.05560901,0,-50.78718047,-5.643020052,ErInRh
mp-19418,1.9139,-2.362485184,3.756065749,0.005837966,-92.20296214,-7.683580178,VCrO4
mp-753632,0,-1.258928605,2.818390014,0.049385648,-62.79895279,-5.233246066,Li2CrS3
mp-720802,4.6625,-2.13261009,2.774910316,0.003581348,-512.986863,-5.829396171,Na6HfH8S5O24
mp-760184,2.764,-3.090441168,3.33876371,0.03774749,-320.9109794,-7.640737604,Na4Ti5O12
mp-776063,3.0801,-2.747356521,3.06846174,0.027314807,-478.0524668,-6.639617594,Li2MnPO4F
mp-19877,0,-0.498233756,8.619194613,0.0476714,-26.10636739,-6.526591848,ZrNi2Sn
mp-3077,0,-0.663600661,6.319993984,0,-30.15600095,-5.026000158,SmAlGe
mp-762111,2.0704,-2.280590943,3.344624355,0.090455755,-145.4262607,-6.059427529,Li2CuPO4
mp-556858,4.7341,-1.755215419,1.450691304,0,-656.9319109,-6.316652989,Al2P3H9(CO3)3
mp-662572,1.2953,-1.527713548,4.838948741,0,-147.4854731,-5.267338325,Ta3In2Cl9
mp-6716,0,-2.577865815,6.451218448,0,-146.3182526,-7.315912628,Ba4Zr(RuO4)3
mp-11371,0,-0.84092691,10.59264279,0,-21.03926107,-5.259815268,ErInPd2
mp-776597,0.7094,-2.34692003,2.70160647,0.003056073,-240.0768281,-6.668800779,NaCu(PO3)4
mp-24668,6.5186,-2.535411893,3.731428237,0,-34.23574911,-4.279468639,CsHF2
mp-765193,2.8395,-2.256790339,4.33634954,0.085907457,-604.044977,-6.565706272,LiSn10(PO4)7
mp-980942,0,-0.076719167,4.714063587,0.005025913,-14.46110901,-3.615277253,YTmMg2
mp-761314,1.4346,-1.890902821,5.908280739,0.051519899,-79.63514859,-5.688224899,Ga2NiO4
mp-684042,4.0073,-2.520392335,4.325050724,0.047233625,-261.7492397,-6.543730993,Li3Bi2(PO4)3
mp-4835,0,-0.618666891,5.948576935,0,-32.61440328,-5.43573388,LaCuSi
mp-8127,4.0486,-2.286651473,2.649226259,0,-72.78760812,-6.617055284,K2Mg(CO3)2
mp-754841,0,-1.888189633,4.491021661,0.111800508,-89.30821958,-6.379158541,Sc(CuO2)2
mp-28316,1.5223,-0.111990027,1.701216875,0.004865399,-111.344658,-3.479520562,K3LiSi4
mp-755121,1.7449,-2.297255761,6.93572273,0.092425641,-110.4074785,-6.900467409,TiBi2O5
mp-581795,3.2348,-2.3286308,6.763857258,0.001026791,-215.5635472,-6.34010433,Er2Te4O11
mp-32654,0,-1.189978456,5.192122478,0.059358214,-56.08442356,-5.608442356,Sc2Te3
mp-558231,0.3065,-2.548507865,7.646758306,0.009163021,-117.3226115,-6.517922859,Ba3Ho2Cu2PtO10
mp-2365,0,-1.260940631,6.889554956,0.02376238,-83.80967095,-5.986405068,Pr4As3
mp-865112,0,-0.26642725,8.185681031,0,-11.92169032,-2.98042258,NaPrTl2
mp-19364,1.8447,-3.194309151,7.852237149,0,-265.0093365,-7.361370458,BaDy2CoO5
mp-768103,1.9214,-2.370009484,2.493896061,0.043469084,-158.0517709,-7.184171405,NaVPCO7
mp-20804,0,-0.251246138,10.57211224,0,-42.74691726,-3.053351233,Rb(InAu2)2
mp-865299,0,-0.719703431,11.0655289,0,-23.32369466,-5.830923665,TmZnRh2
mp-7348,0,-0.556455105,6.787662412,0,-65.03451582,-6.503451582,Sr(BRh)2
mp-2354,0,-0.099883591,8.13860643,0,-48.78921375,-6.098651719,Ti3Hg
mp-696878,4.9619,-2.752915146,2.659415122,0,-94.49767184,-6.299844789,K3CaP2HO8
mp-685371,0,0.000569354,5.795873462,0.113150384,-158.271659,-3.680736255,Ge9(Sb5Te12)2
mp-33300,0.1627,-1.697070026,5.016954544,0.067996139,-90.30374851,-6.450267751,Fe5CuO8
mp-7655,0,-0.342143393,4.141738969,0.016547391,-13.80165817,-4.600552723,BaSi2
mp-867727,0,-1.703679261,6.217169592,0.021982789,-223.2541795,-5.315575703,Li5(BiO3)4
mp-17902,0,-1.729097849,3.133763667,0,-162.4402683,-5.801438154,K3Na(RuO4)2
mp-557543,3.612,-3.115572745,3.777224998,0,-177.5897163,-6.830373703,K3LuSi2O7
mp-22772,0.3237,-2.877401582,5.96930047,,-128.2228322,-8.013927014,Sr2Nb5O9
mp-938,0.5645,-0.091003237,5.90965148,0,-7.94716781,-3.973583905,GeTe
mp-850193,5.367,-3.547901539,6.634931687,0.033344282,-166.7013666,-8.33506833,HoBO3
mp-375,1.6376,-3.635464153,6.574682818,0,-38.51449841,-9.628624603,UO3
mp-17693,3.7032,-2.829042743,3.952218548,0,-296.4910117,-6.738432083,SrCdP2O7
mp-39540,0,-1.936211416,1.964644225,0.042771933,-136.1491497,-5.236505759,CrSiH12(OF)6
mp-745034,3.8562,-1.570386888,2.603606643,0,-196.7637963,-4.471904461,RbFeH4Cl3O2
mp-31014,1.6778,-1.084480491,2.389293412,0,-217.8513813,-5.446284532,ZrP2S7
mp-760546,0,-1.546258319,3.254103707,0.064842377,-70.92483701,-6.447712455,LiCu2(CO3)2
mp-866813,2.0265,-1.66207471,3.060146557,0.111177707,-268.0494732,-4.786597735,Ca2SnS4
mp-16291,0,-3.40702754,3.671709968,0,-90.34305196,-6.022870131,NaZr2PdF11
mp-643394,5.0085,-1.736821841,2.837277326,0.028058478,-85.69919147,-4.761066193,NaInH8(NF3)2
mp-757652,5.1189,-1.293481174,1.773963092,0.001796744,-561.3786491,-5.397871626,H13S2N3O8
mp-850868,4.5789,-1.779501649,2.5574323,0.058899466,-398.0903503,-5.529032643,NbH8N2O2F5
mp-558085,3.0314,-2.131168305,3.300942238,0,-130.1509498,-5.422956243,KNaGeO3
mp-866097,2.1412,-0.570249763,2.599876104,0.00113312,-93.54833805,-4.677416903,CuH6BrN2
mp-610517,0.9133,-0.256712,6.674810969,0.021401593,-39.56760673,-3.297300561,Ag2S
mp-27916,0.2239,-0.260837085,7.788200165,0.005881602,-14.74926567,-3.687316418,AgBiSe2
mp-14722,6.9766,-3.846739268,3.486655069,0,-399.3160982,-5.54605692,NaSrAlF6
mp-686677,3.94,-1.913074928,2.963400232,0.004956521,-166.3180283,-5.543934276,Rb2PH3SeO8
mp-4056,3.458,-3.803637775,3.818976787,0,-232.7939764,-8.314070585,CaSc2O4
mp-769658,0.8649,-2.622793839,3.923594496,0.04694881,-110.65583,-6.915989375,Li2TiFeO4
mp-554163,0,-1.037722149,4.453528314,0,-162.8715204,-4.790338835,Cu5Se2(ClO4)2
mp-557890,3.0068,-4.032386022,9.34353005,0.026788675,-205.9688612,-9.362220963,Er2Hf2O7
mp-20916,0,-0.314883257,6.925199957,0,-123.5666627,-7.722916421,V5Ge3
mp-541963,0,-0.730008804,4.022540284,0,-161.9893441,-4.499704004,Rb3(FeSe2)2
mp-782668,1.581,-2.792000518,2.720859168,0.025310959,-439.860461,-6.468536191,Li4VP2(O4F)2
mp-9579,0.5899,-0.745017556,5.885180613,0.012498473,-32.14824279,-4.018530349,AlTlSe2
mp-19269,2.3395,-3.148383835,6.778440004,0,-163.2398567,-8.161992836,NdCrO3
mp-680204,5.6051,-3.276365519,1.943604893,0.012785497,-521.5593703,-7.902414701,SiO2
mp-669345,2.7788,-1.494663107,2.867571766,0,-170.8953009,-3.883984112,TaTeCl9
mp-27638,0,-0.100584687,5.584908646,0,-9.11812902,-3.03937634,NiI2
mp-8298,1.2193,-1.6453814,3.792620226,0,-33.29988713,-4.757126733,Sr4P2O
mp-559390,4.1904,-3.465631191,2.839015328,0.008720564,-303.9814816,-7.237654323,CaAl2O4
mp-20072,2.5506,-2.705253869,5.324352425,0,-28.29972966,-7.074932415,LaCuO2
mp-18594,2.1131,-0.922250301,2.932916678,0,-99.61238022,-3.557585008,K3AsSe3
mp-540314,2.0461,-2.471337048,2.95618063,0.067869458,-184.2426645,-7.086256328,Fe(PO3)3
mp-7339,4.5318,-3.400984359,4.225503022,0.021893654,-148.1363128,-7.406815638,BaSiO3