id,band_gap,formation_energy_per_atom,density,e_above_hull,energy,energy_per_atom,pretty_formula
mp-722310,0.20230000000000006,-1.793475730182679,3.9929833703013617,0.0878935929910698,-158.45806561,-5.65921662892857,KErHSe2O9
mp-28626,1.484799999999999,-3.1105136072916664,5.2695385924686775,0.0,-87.94481305,-7.328734420833332,LaSO
mp-763826,,,,,,,
mp-559934,4.1304,-2.555148428962585,3.202333327401913,0.006866191249992326,-173.80148079,-6.2071957425,LiZnPO4
mp-566864,,,,,,,
mp-555050,2.9057000000000004,-3.2159603172222213,5.340650834605729,0.010336128611120543,-306.15686631,-8.5043573975,BaNb2O6
mp-769869,,,,,,,
mp-551905,3.258,-1.5399724389999996,4.389479886781586,0.0006526290000001822,-35.90985852,-7.1819717039999995,OsO4
mp-769153,4.3691,-2.452673480684393,3.2828374764007138,0.06927535090909043,-238.57422289,-5.422141429318181,Li2SbSO4F3
mp-624769,2.5304,-2.41258445314935,4.156512747512135,0.0011193593181832997,-319.74980371,-7.267040993409092,P2WO8
mp-562366,1.8558,-2.881868061588672,5.656203676671541,0.0,-161.91018249,-7.71000869,Cs2U3(TeO7)2
mp-744472,3.1887,-0.8312834452708693,1.627495653710744,0.6582245822372945,-223.86597424,-4.866651613913044,CrH14N4Cl3O
mp-558309,4.0855,-2.9631147937457145,3.5628120461478288,0.0,-98.80500248,-4.7050001180952385,K4SnSb2F14
mp-10409,1.5191,-1.5473250586019742,5.502994374038148,0.008182691513157536,-168.57813794,-4.436266787894737,Ba4Nd2Cd3Se10
mp-7652,1.1596000000000002,-1.504701222875,3.9258231926171865,0.0,-327.61953639,-4.095244204875,Na5TlO4
mp-772734,,,,,,,
mp-772668,0.8494999999999999,-2.440045420335782,2.773202937500236,0.04116322017806962,-178.5960682,-6.869079546153847,Li3MnSiCO7
mp-779424,2.7834000000000003,-3.821639678977274,8.220065034021488,0.0,-251.68767749999998,-11.440348977272727,Gd3TaO7
mp-762089,2.1349,-1.2891713976353512,2.1741200399390723,0.026495734122806702,-536.61964648,-4.707189881403509,Na4SnH32(SeO4)4
mp-555236,3.0235000000000003,-2.216099848395834,6.283045973542464,0.0,-248.36453901,-6.20911347525,Tm2Te5O13
mp-557470,4.3549,-2.5892954445843337,3.4101943883053605,0.0,-313.18872511,-5.219812085166667,K2Sb2S(O2F3)2
mp-770487,0.4796999999999998,-2.576896207731481,3.4476655900985937,0.05599056944444048,-260.25480956,-7.229300265555557,Li3V3(BO5)2
mp-755794,2.0394,-2.2625080008928573,4.679355673423292,0.00943650642857108,-72.0742103,-5.148157878571428,Rb3LuO3
mp-777461,1.3335000000000004,-2.3186215198809523,4.7493677596811565,0.04562111803570357,-189.94578986,-6.783778209285713,Li4V3Cr2Sn3O16
mp-625145,4.1694,-1.2774053052136358,1.3485056381755334,0.04336479954546402,-101.44092474,-4.610951124545455,H7ClO3
mp-558294,4.5167,-2.858235014166667,5.705160957617072,0.0005222148958319295,-344.59852697,-7.179135978541668,Li3TaO4
mp-8429,0.4301999999999999,-1.542370810777778,3.80824365125996,0.0,-44.14402538,-4.904891708888889,K4IrO4
mp-779930,,,,,,,
mp-18782,0.0,-1.3666657622916656,4.231705328284821,0.705349799375,-43.20642776,-5.40080347,LiFeO2
mp-3316,2.2116,-3.5986042647499983,6.156414578561409,0.001182774999998415,-77.16415543,-7.716415542999999,BaCeO3
mp-762792,,,,,,,
mp-775068,,,,,,,
mp-756135,2.5885,-3.727827733068183,7.6021780631119205,0.03856378034091357,-189.46033337,-8.611833335,Tb3NbO7
mp-12047,0.4942,-1.716645270285714,3.1265073551913214,0.0,-81.1905556,-5.7993254,K3Na(RuO4)2
mp-764964,,,,,,,
mp-675767,2.1412999999999998,-2.5808585148809517,5.887121430517812,0.006318211428571807,-86.73915711,-6.195654079285713,La2YbS4
mp-560786,0.5022000000000002,-2.2331434339439653,5.221635705729637,0.0,-356.85879831,-6.1527379018965505,Nd10S19
mp-770751,,,,,,,
mp-735514,3.1912,-0.8475000296885943,1.7333813765754065,0.0822397434102502,-442.74707989,-5.676244613974358,MnH18C4N8(ClO)4
mp-984350,0.5786999999999995,-0.8113991490000003,10.612500324593231,0.0,-96.54398994,-4.8271994970000005,Dy3Sb4Au3
mp-639397,,,,,,,
mp-757,0.6364999999999998,-0.7119944262500004,2.454984698953045,0.0,-26.46650865,-3.30831358125,Li3As
mp-5440,5.612,-3.119038173234128,1.9187954258136064,0.01194957236111005,-1076.53806254,-7.47595876763889,AlPO4
mp-4555,3.2956,-2.2409295258333333,4.3954420653432615,0.0,-56.95883739999999,-6.328759711111112,Ca(AsO3)2
mp-780313,0.08400000000000007,-1.7649805572303132,2.083829743088396,0.1416420626227195,-401.22083374,-5.731726196285714,LiVP3(H7O8)2
mp-696941,0.8283999999999999,-1.6162759111989993,2.8949577593964846,0.0,-221.46298713,-5.53657467825,K2H2RuO5
mp-540391,1.0242,-1.9481808793452384,2.74356290313352,0.1926648280555545,-157.27740323,-6.553225134583332,CoPO4
mp-698358,1.916,-0.40422409885960064,1.8775865487767809,0.045535843533332176,-311.5112548,-6.230225096000002,NiH10C4(SN4)2
mp-653930,1.5366,-1.560719123502,7.107997853958688,0.0,-253.23032276,-5.0646064552,CuAs2Pb8Cl5O9
mp-216,3.8235,-3.97789783125,3.7507863857926576,0.0,-362.33139018,-9.0582847545,Sc2O3
mp-764350,,,,,,,
mp-695984,3.8891,-2.2877603089992857,4.902716012157665,0.0,-414.10852827,-7.394795147678572,BaRe2H2O9
mp-19120,2.4349,-2.203609643055555,3.05233891041771,0.0,-78.88252624,-6.573543853333334,MgCrO4
mp-504948,3.9614,-2.8855192584523817,3.820477114265125,0.007711921904760999,-200.16080109,-7.148600038928572,LiScGeO4
mp-557266,0.2876000000000001,-0.05608758166666602,8.049078021369057,0.37439692458333385,-40.30337081,-3.3586142341666663,HgO2
mp-777906,,,,,,,
mp-18451,7.0612,-4.327161994992857,6.290548161318672,0.00010896991070286076,-179.19688523,-6.399888758214287,KEr3F10
mp-545847,1.4006000000000003,-2.369774535625,8.774656648006443,0.0,-49.87156798,-6.2339459975,LuBi2BrO4
mp-29095,5.7206,-1.6171393528854991,1.8699966483878965,0.0,-215.32662954,-5.3831657385,H4SO5
mp-763696,,,,,,,
mp-12046,0.5156000000000001,-1.71638407125,3.760934776971869,0.0,-80.79730419,-5.771236013571429,Rb3Na(RuO4)2
mp-776041,2.08,-2.2610727416071428,2.7070780531375065,0.03417110785714428,-207.4261955,-7.408078410714286,V2O5
mp-17660,1.0198999999999998,-1.5333444676996528,5.546723424395725,0.0,-121.02955323,-5.04289805125,SrPrCuSe3
mp-540110,,,,,,,
mp-17756,0.6094999999999999,-0.7166111843749997,4.1066301368952,0.0,-91.19832214,-3.7999300891666663,RbAg2SbS4
mp-616204,4.144,-1.4620690120320001,2.5623693458923227,0.009599993499999291,-129.92766687,-3.24819167175,Ga3Cl7
mp-761514,,,,,,,
mp-667342,1.6818999999999995,-1.6053448604545466,8.883944443749977,0.017082772904036148,-188.23927588,-5.704220481212121,Bi12PbO20
mp-705336,2.7782000000000004,-2.318809574353003,3.4844955500317694,0.12173948356521702,-307.89175862,-6.693299100434783,Li2Co3(P2O7)2
mp-760515,2.4394,-2.9373174132440485,5.288732041329329,0.03879858285714288,-83.35693957,-5.954067112142857,Ba3Sr4O7
mp-5033,4.9687,-2.96148890246,5.63497627319971,0.0,-45.32339742,-5.035933046666667,Tl2SiF6
mp-755413,1.0916,-1.3715270720833328,2.079114340759358,0.07878506166666721,-21.96938539,-3.6615642316666666,Na2O
mp-25543,,,,,,,
mp-12814,0.7075,-0.8921768544759999,5.289410396948291,0.0,-44.59853707,-4.459853707,Ba3SbN
mp-735519,3.0239000000000003,-2.9628984705624997,4.345312794677608,0.06436303668055476,-174.0966937,-7.254028904166668,KHoCoSi2O7
mp-721255,5.1063,-2.6565266003523806,2.2373029474491317,0.0822785418000036,-305.40068309,-6.108013661799999,Li10Si(PO6)2
mp-21724,3.1030000000000006,-2.390195654642857,5.829655694961192,0.0,-352.87577814,-6.30135318107143,ZnSiPbO4
mp-757070,3.0451,-1.6303413441666668,4.292422750867455,0.09056485541666648,-19.79651789,-3.2994196483333336,BaCaI4
mp-771515,1.3721,-2.321371875000001,5.137689502612114,0.06473882779761997,-192.40504504,-6.871608751428572,Li6V3W3O16
mp-766923,1.8513,-2.766544880952381,3.4349754394517005,0.08102083607143573,-204.32458288,-7.297306531428572,LiVSiO4
mp-550553,2.8418,-1.6116414551520002,6.374422343839831,0.0,-45.1920167,-4.51920167,CdBiClO2
mp-765151,,,,,,,
mp-779181,,,,,,,
mp-771373,,,,,,,
mp-555661,4.3213,-3.238823515666667,3.156063331631457,0.0,-646.53108141,-7.1836786823333325,Ca9In(PO4)7
mp-772381,,,,,,,
mp-676813,1.7041999999999995,-0.4834505583333332,4.668625159770109,0.043769271499999984,-99.06080483,-2.47652012075,RbAg4I5
mp-554848,,,,,,,
mp-780933,,,,,,,
mp-505322,1.2562999999999995,-0.4737157825538789,5.904752748482827,0.0,-149.25809189,-4.6643153715625,CsTa(CuTe2)2
mp-15317,6.4808,-3.6166361797140003,4.338347958383797,0.0013374529999996554,-52.54536262,-5.254536262,Rb2NaHoF6
mp-23764,4.2448,-2.6337298058738887,2.4962479228582675,0.00025263194444047343,-114.21454143,-6.345252301666666,Mg3Si2H4O9
mp-771277,,,,,,,
mp-1019532,4.1915,-3.4330174601041668,3.4803731395227886,0.023903074658333526,-351.26856781,-7.318095162708333,BaAl4O7
mp-23630,1.3611,-2.0545651514828567,7.919664510757878,0.0,-358.52022963,-6.402146957678572,NbBi4ClO8
mp-849417,,,,,,,
mp-647489,2.3676,-0.5902836095238095,5.062047876197826,0.0017227288095238436,-40.07550217,-1.9083572461904759,CdI2
mp-15349,3.568,-2.3306759420138885,3.3545312916859618,0.0,-70.31281879,-5.859401565833332,Li2GeO3
mp-768827,3.171,-1.65951353,4.143571302668878,0.09424391444444467,-117.96941714,-3.276928253888889,BaSrI4
mp-771919,,,,,,,
mp-8216,4.5012,-3.530323097416667,5.201167872531249,0.0,-168.01603856,-8.400801928,LaBO3
mp-754044,2.9346,-3.808810637656249,7.127310853761588,0.09513060468750112,-137.51736605,-8.594835378125,Ho2TiO5
mp-560545,2.6021,-2.0453654421052625,3.5676655390996377,0.01844999107602785,-226.13574002,-5.950940526842105,Na2Ca(AsO3)4
mp-1020621,4.864000000000001,-2.8990378860576933,2.66820799264417,0.014258647938038216,-383.61873011,-7.377283271346153,RbBe2B3O7
mp-32483,,,,,,,
mp-773222,,,,,,,
mp-625402,3.7105,-2.296875272563333,5.1290534952112035,0.0,-86.50403155,-6.178859396428571,Sm(HO)3
mp-626241,3.4469000000000003,-1.4522970956328394,1.9100150997370693,0.04619383814818434,-270.38788821,-5.007183115,Sr(H8O5)2
mp-781686,,,,,,,
mp-662599,0.8906000000000001,-0.10620181636160723,6.3310676574455345,0.0,-292.64690853,-3.483891768214286,Ag3AsSe3
mp-4699,2.3847,-3.0785111547499997,6.857101774514764,0.001388070500000893,-165.19820986,-8.259910493,NaTaO3
mp-14037,1.7808999999999997,-2.237406281214,6.605424462113762,0.0,-44.27140202,-4.427140202,NaTl2RhF6
mp-979137,0.4531000000000001,-0.4492911775716664,4.091701544869756,0.0,-15.177863199999999,-3.7944657999999998,SrGaSiH
mp-779096,3.5119,-3.891166198977274,9.192112102278381,0.025251340113641163,-391.22175576,-8.89140354,Tm3TaO7
mp-561533,3.3231,-2.2160305147716675,4.871832746561343,0.0,-263.09290771,-5.4811022439583335,SbOF
mp-762171,,,,,,,
mp-762851,,,,,,,
mp-776826,,,,,,,
mp-9309,3.4027,-3.0247895197097696,4.7551525909371755,0.0,-163.66769789,-8.1833848945,CsTa(BO3)2
mp-766984,0.3329000000000001,-2.8155169677951384,2.5550922169115284,0.1564767372656215,-346.70375187,-7.222994830625002,Li2Fe(Si2O5)3
mp-770744,1.5543999999999998,-2.2234257405952382,4.943598902531081,0.1282234957142938,-187.21064579,-6.6860944925,Li4Nb2Fe3Sn3O16
mp-997569,2.1635,0.058482246964285174,0.5283864902143888,0.6677855762499991,-36.16758879,-4.52094859875,AlP
mp-560326,3.3351,-2.8245096478226306,4.5931264705478805,0.02293403473684119,-277.37788122,-7.299417926842105,Ba5B3CNO9
mp-8702,2.7272000000000003,-2.280302327857142,3.8888089432028825,0.0,-254.99581544,-6.07132893904762,LiGaGeO4
mp-8133,4.7024,-3.5137559453174614,3.919723066148216,0.0,-145.24347154,-8.069081752222223,LaPO4
mp-9406,2.1148,-3.4895717568137252,4.915751784837432,0.020407241985301642,-139.15439299,-8.185552528823527,Li2La2Ti3O10
mp-696138,2.3644,-1.2790431604523809,1.977132043427172,0.021075418599999732,-216.3705386,-4.3274107719999995,Li10Ge(PS6)2
mp-510002,3.6714,-1.6896370423480005,3.0358151402520983,0.0,-76.47006129,-5.098004086,K2Sn(HO)6
mp-15998,1.1052999999999995,-1.1652098050000008,3.45106115011718,0.0,-82.94988298,-5.18436768625,RbV(CuS2)2
mp-764382,,,,,,,
mp-744637,1.9457,-2.8045416402220167,3.540158553327845,0.02666275051467171,-250.51751808,-7.368162296470588,Ba2V3P6HO22
mp-735483,4.6221,-1.755213658675208,2.359699917824856,0.008301501510416642,-349.91571145,-5.46743299140625,Na3LiMo2(H6O7)2
mp-754517,3.7364,-1.634187824074074,3.8354838124839103,0.032602423333336635,-29.54015153,-3.282239058888889,SrCa2I6
mp-603267,,,,,,,
mp-740759,2.7756000000000003,-0.5771034146767072,6.707138258375993,0.0016386457407411292,-263.71863383,-3.2557856028395062,Yb19(Mg4H27)2
mp-773178,2.3858,-2.129001130989584,2.5037729285533947,0.0526361106250004,-156.46385004,-6.5193270850000005,Na2CrCSO7
mp-572634,3.4407,-1.9975158770425931,2.4369389757562963,0.0,-310.5299517,-4.312915995833333,Al2AgCl5O
mp-780230,2.0011,-2.5426127849519986,10.38448986616949,0.0038805450000012334,-422.22434647,-10.55560866175,Hf2N2O
mp-766770,,,,,,,
mp-20790,2.3267999999999995,-0.8024850735119049,2.947428218003416,0.0,-26.8718395,-4.478639916666666,InPS4
mp-29396,0.6461999999999994,-0.9871751444999994,7.8300039379132915,0.0,-50.6764191,-5.06764191,Cu2PbO2
mp-19395,1.0729000000000002,-1.820413288538391,4.012095453730252,0.0,-85.73370849,-7.1444757075,MnO2
mp-849761,2.1910000000000007,-1.655836395519231,8.950114577981328,0.021365159923124818,-373.39881841,-5.744597206307692,GaBi25O39
mp-767723,1.8542,-3.0263678235313893,2.8504248085783286,0.054323378645825926,-131.62200056,-5.484250023333334,LiV2F9
mp-12295,4.1563,-3.3821952644444435,4.597708148138807,0.0033406930952413205,-654.52842686,-7.792005081666666,Sr3La2(BO3)4
mp-777321,,,,,,,
mp-572763,2.136,-1.058890375914047,2.303951542746166,0.0072436882812443315,-292.11392233,-4.868565372166667,TaP4(SCl)5
mp-582146,0.4575,-1.7719338811744405,3.607373556013747,0.0,-166.88785075,-5.2152453359375,CsNb4Cl11
mp-17924,4.2542,-2.445113649626624,4.978457260310802,0.0,-289.65812122,-6.583139118636364,ZnP2PbO7
mp-28996,1.6427000000000005,-0.9150842608712124,8.058441243337038,0.022982482909091214,-201.5888128,-4.581563927272726,Ag4Bi2O5
mp-560152,5.6113,-3.1800450435416665,2.2874445882146195,0.09795262562499828,-375.27770757,-7.818285574375,SiO2
mp-777896,1.6523999999999996,-2.268385986666666,4.042873047715114,0.02945036464286055,-190.71492716,-6.811247398571429,Li2V3NiO8
mp-27311,3.0102,-2.1581981420833345,5.313413080558719,0.05302716624999882,-49.76607364,-8.294345606666667,LaCO
mp-2920,4.0215,-3.73137068775,6.3715115330465055,0.0,-80.15086556,-8.015086556,LaAlO3
mp-22023,2.9378,-1.8317992420625004,7.105224685981502,0.006728671333333658,-116.8054875,-5.840274375,Pb3SO6
mp-777555,,,,,,,
mp-553956,3.1822,-2.3100286374725267,7.290286159686384,0.03471088999998795,-85.96003641,-6.612310493076923,P2Pb3O8
mp-8111,4.256999999999999,-4.26694680748,5.955491283493946,0.005200221666667559,-46.80612626,-7.801021043333333,LaOF
mp-34489,0.407,-0.7555442265885417,5.152707896297184,0.11476158624999976,-29.34921289,-3.66865161125,LiInSe2
mp-628643,0.7906000000000004,-0.6375160486458332,5.235308464586831,0.0,-106.85748069,-4.45239502875,CuAsPbS3
mp-776610,3.1662,-1.6428373708333333,3.2712774023881037,0.08962468181818384,-307.92983108,-3.4992026259090907,Ba6YI15
mp-560366,2.7851,-0.8204031252164287,3.3840297657183553,0.0,-228.83674959,-2.0431852641964285,XeF6
mp-764057,1.6412,-2.423763422172499,3.2872140755829817,0.053127254791658814,-162.04374558,-6.7518227325,VO2F
mp-677454,2.5131999999999994,-2.2974761715287473,6.811177023381766,0.0059543655487850344,-539.88754084,-6.583994400487804,P6(Pb2O5)5
mp-763472,,,,,,,
mp-763812,,,,,,,
mp-764011,,,,,,,
mp-554583,5.2489,-2.8434550440178583,3.383759392446062,0.0,-591.92653436,-7.3990816795,DyP5O14
mp-759405,3.285,-2.467530913095,8.158092784866787,0.0057581388499876604,-207.71455951,-5.19286398775,Bi3O2F5
mp-26855,3.9146,-2.551383534611529,3.2462112672791785,0.04389811001315547,-257.77511383,-6.783555627105264,Li2Sn(PO3)4
mp-772155,3.3761,-1.9590374993402784,4.0670901949852585,0.05750616083333426,-149.63529648,-6.23480402,Li2BiAsCO7
mp-770745,1.5205,-1.8395820622348489,2.9832625866680167,0.06763258685606033,-276.21200645,-6.277545601136364,Li2Cr2O7
mp-763731,,,,,,,
mp-756510,3.1491,-2.3938522324444436,2.5195992785466523,0.0,-101.72796119,-5.6515533994444445,K4TiO4
mp-780755,,,,,,,
mp-540962,4.8922,-2.9421882523492067,3.1251114587870785,0.0,-263.21384733,-7.311495759166667,KLa(PO3)4
mp-767069,,,,,,,
mp-707307,5.6698,-2.478457183565714,3.719802960562797,0.014384239390427213,-536.00250268,-6.7000312835,Nd2P3(HO2)5
mp-554472,5.0611,-1.5134757401003565,1.9332001356552195,0.008428614249999633,-132.56437272,-5.52351553,PNClF
mp-5784,2.9889,-2.1513599739583333,3.198914017826634,0.0,-65.77422778,-5.481185648333334,Na2GeO3
mp-675219,2.2419,-2.4154740777173918,4.1000605280555495,0.03397715847826088,-124.37453387,-5.407588429130435,Ba9(LaS6)2
mp-24136,5.3874,-0.4591340472808483,1.81843643096284,0.0,-132.75781761,-5.106069908076923,Cs(BH)6
mp-775657,,,,,,,
mp-31096,3.6018,-0.3606294116719997,1.0189139352445653,0.0,-65.03411695,-3.2517058475,Li3AlH6
mp-768991,1.9868,-1.9822143344367296,3.725424042776599,0.0727594450462945,-354.4780557,-6.564408438888888,Li4Bi2C4SO16
mp-9778,1.2394,-0.34349970947619024,3.0926612356488015,0.0,-23.6812233,-2.9601529125,K2AgP
mp-567163,,,,,,,
mp-561318,0.5734,-3.2647254352972923,4.642079981129687,0.0,-250.93076780000004,-5.227724329166667,Ba2AlCu2F11
mp-695202,1.9945000000000004,-3.2437061609039555,2.55512383901446,0.039052030796598025,-437.23010907,-7.410679814745762,Mg4Al9Cu(SiO4)9
mp-773213,,,,,,,
mp-605108,5.8942,-2.003123202820148,2.0594679535049893,0.012920262852219366,-345.30467299,-5.953528844655173,Al2P3H11O13
mp-540586,1.1265,-1.5109767089583326,8.729912359773843,0.0,-122.07382992,-5.08640958,Tl2SnO3
mp-4690,2.9948,-1.7632969674166663,3.6783315576851883,0.01143598822916747,-72.20242148,-6.016868456666668,K3TaO8
mp-673096,0.22219999999999995,-2.5283786354974493,2.9605970637995314,0.08699802921429534,-189.41535894,-6.764834247857142,Li3Sn(PO3)6
mp-645305,,,,,,,
mp-27229,3.2471999999999994,-1.8805972752173905,4.8432510057649925,0.0,-277.31739321,-6.028638982826086,Sb6S2O15
mp-6702,3.7158,-2.5981181451373625,3.325547164968188,0.0,-679.75061451,-6.536063601057693,Na7In4P9O32
mp-777679,3.384,-2.4866304535711112,3.0198612975739225,0.4339582920833358,-112.98881259999999,-4.707867191666667,LiFeF4
mp-761616,,,,,,,
mp-776860,0.5905,-1.9570842575595235,5.517302129505841,0.05171302602678729,-180.49079557,-6.446099841785713,Li4Fe3Co3(WO8)2
mp-997159,1.0801000000000005,-1.6336266256250005,9.215993656591607,0.00026033749998877204,-51.879532899999994,-6.4849416125,CrAuO2
mp-767470,,,,,,,
mp-567763,3.5811,-0.20847375040125016,2.268337191721022,0.0,-270.09869552,-8.440584235,Pr(C2N3)3
mp-6492,3.5379,-3.0894172915833336,6.220451519892469,0.0,-70.80118163,-7.080118163,Ba2YSbO6
mp-745164,2.9477,-2.2023946440908926,2.6541877565224032,0.10839263473953677,-424.60238776,-6.63441230875,FeP3(HO5)2
mp-774708,4.089,-0.8205975235073321,1.9104475521048505,0.04320425027380992,-684.0959607000001,-5.7007996725,ZnH12C3S4(N3O2)2
mp-780932,,,,,,,
mp-505771,4.3382000000000005,-1.807770098144444,1.9582021149869733,0.0,-418.76171745,-5.816134964583332,K2NaH5(CO4)2
mp-851090,3.3842,-2.7876350938166667,3.4545895708675967,0.07753326660714599,-259.26551119,-4.62974127125,SrLaCl5
mp-17816,1.4133000000000002,-1.8935116169318176,2.7455386822403023,0.003393929090909964,-213.10631286,-4.843325292272726,Na5AsO5
mp-34296,1.5023,-1.838070999285714,5.16896892889709,0.052228267857143074,-85.16242711,-6.083030507857143,Zn(FeO2)2
mp-769772,,,,,,,
mp-30925,2.1868000000000003,-1.523580529964,3.3444898160629504,0.098829308964401,-69.50322178,-6.9503221779999995,La(NO2)3
mp-18090,1.0798,-1.5457426729687498,5.276850408266999,0.0,-192.80728321,-6.0252276003125,Ba3TaAs3O
mp-650841,3.3617,-0.7670302761111109,3.748570441000103,0.010740775138888823,-103.23640594,-2.8676779427777777,GaBr2
mp-571193,0.5601000000000003,-0.36003903778817803,4.081046912433735,0.0012512319999995471,-260.92036084,-6.523009021,MnP4
mp-559327,,,,,,,
mp-865218,1.9073,-3.645468858083333,7.8059160150239855,0.09722004799999873,-40.39898881,-8.079797762,YbTiO3
mp-1019786,4.2518,-2.659581331877192,2.492888686696747,0.0,-523.90524259,-6.893490034078948,K3Zn(BO2)5
mp-779913,1.7291,-2.5679944585777768,4.1554397360370015,0.04251729277777638,-103.33851477,-5.741028598333332,Fe3OF5