id,band_gap,formation_energy_per_atom,density,e_above_hull,energy,energy_per_atom,pretty_formula
mp-1009894,0.5028,-0.193933574,5.150547264,0.61358183,-18.16086269,-9.080431345,ZrC
mp-9637,0.2862,-3.288868943,4.035846955,0,-272.0199923,-6.182272553,K3NpO2F5
mp-567905,0,-0.205381326,11.12254893,0,-138.6127223,-6.930636116,U3Ni3Sn4
mp-9973,0,-0.849467693,5.631693778,0,-34.91333464,-8.72833366,VB
mp-570453,2.2061,-1.624075282,4.955037457,0,-145.6808391,-6.621856324,Ba4W(N2Cl)2
mp-631303,0,0.658559318,10.14448884,0.66391607,-17.84278379,-5.947594597,InReGe
mp-570803,0.8347,-1.215613896,5.08730608,0,-60.49011976,-4.32072284,Ba2Ge(TeSe)2
mp-10393,0,-0.636942361,7.235444782,0.032349265,-37.09895928,-4.63736991,SmGaSb2
mp-19477,3.9073,-3.200605721,2.596542837,0,-451.9376722,-7.792028832,Mn2Al4Si5O18
mp-1346,1.9307,-0.810032146,2.596067893,0,-99.93559954,-7.13825711,B6O
mp-23474,0.5369,-0.674801657,6.449789942,0,-75.83743194,-4.213190663,AgBi3S5
mp-33581,0,-3.20964757,6.210149076,0,-402.5179213,-8.214651455,Ba9Nb10O30
mp-865794,0,-0.594526424,10.4502865,0,-9.44091599,-2.360228998,LaYbHg2
mp-752458,4.0053,-4.006085755,6.102179817,0,-353.9838997,-8.849597492,Dy3Y5O12
mp-698120,0.7997,-2.454558692,5.174143392,0.023809792,-378.4677352,-7.884744483,KGd2Cu(MoO4)4
mp-570806,0,-0.043108259,4.019285132,0.10470558,-389.9524519,-2.670907204,Mg30Al24Ag19
mp-772535,1.707,-3.028539079,4.176762755,0.046113926,-415.1918199,-8.833868508,LiNb13O33
mp-18043,4.4903,-3.361309429,4.013967239,0,-246.6127761,-7.706649253,Sr6YSc(BO3)6
mp-504769,0.6641,-0.734034104,2.010992727,0.008455326,-84.35051812,-6.025037009,N2O5
mp-622619,1.6074,-2.58575037,6.055153474,0.009775826,-280.5980785,-7.794391069,UVAgO6
mp-101,0,0,21.93012414,0,-8.86382689,-8.86382689,Ir
mp-31008,2.4679,-2.267540423,2.46118865,0,-317.9343694,-5.127973699,Na14Al4O13
mp-9564,1.2727,-0.946537649,3.332021605,0,-19.23933645,-3.84786729,Ca(MgAs)2
mp-23299,4.7794,-2.155897182,3.145936727,0.06131875,-6.58217781,-3.291088905,RbCl
mp-4350,3.5148,-2.361444685,4.925372931,0,-365.6785745,-6.529974544,La2(SeO3)3
mp-15822,0,-0.702012481,5.849004483,0,-40.05931622,-4.451035136,LiSmGe
mp-972635,0,-0.469061629,11.25767911,0,-11.76738772,-2.94184693,SmErHg2
mp-1009491,0,-0.22063766,2.384926527,0.599402688,-4.60022292,-2.30011146,RbTe
mp-647604,0,-2.543720115,8.436373397,0,-55.41681186,-9.23613531,PuIO
mp-1002164,1.6738,0.490539378,5.736280223,0.490539378,-12.86714103,-6.433570515,GeC
mp-34330,4.3566,-3.341649109,3.48205485,0.051075028,-98.79549169,-7.056820835,MgAl2O4
mp-5223,3.2382,-3.709055059,7.235659214,0.00829557,-196.2241304,-9.81120652,GdAlO3
mp-542832,3.175,-3.665546506,7.93236385,0,-120.5637371,-7.535233568,Ba3Lu4O9
mp-1054,0,-0.307407183,11.55041703,0,-15.09834946,-3.774587365,ErTl
mp-1019550,3.3941,-0.816516156,4.849649594,0,-110.0930229,-6.880813928,BeGeN2
mp-559520,0.9885,-2.064378316,5.386761942,0.005106407,-244.4473381,-6.111183452,In2Ag3(PO4)3
mp-850994,0,-2.44753995,3.102269893,0.068258705,-330.0130186,-7.500295877,LiMn2(BO3)2
mp-780193,2.5296,-2.615963634,2.942441062,0.019668844,-401.6891486,-7.17302051,LiCr(PO3)3
mp-540900,0.7986,-2.22879645,4.766561931,0.011822428,-306.2545863,-7.291775865,B2PdO4
mp-775864,0,-1.343262461,4.809575895,0.052211221,-339.4760178,-5.853034789,NaCo11O17
mp-676329,1.6459,-1.168865161,4.507084161,0,-168.3962823,-5.613209408,Rb5Re3S7
mp-757816,0.286,-2.58588843,2.55554953,0.100148101,-261.8465265,-7.273514625,LiNb(PO3)4
mp-757159,3.2011,-2.46616674,5.051283645,0.097368603,-181.6014508,-6.485766099,LiSiBiO4
mp-559176,0,-3.56422716,4.830913689,0.011974917,-298.6223564,-8.532067324,La4Ti5(Si2O11)2
mp-540632,3.4752,-2.504968001,4.57295571,0,-199.6950339,-7.131965497,RbTa(GeO3)3
mp-27069,4.0261,-2.53028617,4.448262574,0.037339791,-524.2899862,-6.553624828,Li3Bi2(PO4)3
mp-14435,1.8319,-0.996169167,3.069629088,0,-50.79086315,-3.627918796,K3GeSe3
mp-11293,0,-0.150876069,8.333556304,0,-18.26434513,-4.566086283,ZrCdCu2
mp-559628,0,-3.677025529,6.865944004,0.051219581,-484.5502173,-7.12573849,NaNp3F13
mp-776806,0.991,-2.255034541,4.580057222,0.01418014,-185.7864043,-6.635228726,Li4V3Fe3(SnO8)2
mp-558347,4.2286,-2.904900972,3.075085827,0.001943392,-220.1258714,-6.474290335,K4Ba(SiO3)3
mp-780403,1.2691,-0.892618724,4.074060039,0.050564863,-219.5585685,-4.574136844,NaCu3O2
mp-557929,0,-0.416679194,6.379932457,0.017861849,-45.40384807,-4.127622552,Tl(Cu3S2)2
mp-862947,0.4743,-0.860334834,7.562821999,0,-14.46239322,-3.615598305,Ba2BiAu
mp-754495,1.6508,-1.93541718,4.860293579,0.04272106,-112.3931124,-9.366092697,NbNO
mp-770543,0,-1.972862176,4.86938182,0.059254243,-75.00070934,-7.500070934,Mn2O3
mp-27508,2.0898,-1.071912346,2.65152686,0.064371817,-35.00647589,-3.500647589,Li6Br3N
mp-696291,3.314,-1.222171482,2.429146759,0,-164.5612232,-5.485374107,ZnH4(NO4)2
mp-780936,0.2493,-2.958085691,2.860265715,0.057568751,-205.578623,-5.873674943,Li5V6O5F19
mp-14030,4.6025,-3.207368397,2.658327203,0,-748.7380026,-7.487380026,Na2LiY(Si2O5)3
mp-975468,0,0.403657905,6.483207561,0.403657905,-11.78476191,-2.946190478,RbAc3
mp-30611,0,-1.017473355,13.82144759,0,-49.52071972,-6.190089965,ErSnPt2
mp-510086,0,-0.78345742,3.875289657,0,-35.68549959,-4.460687449,Ca2InN
mp-11317,0,-0.013909862,7.94208767,0.029095902,-48.31693675,-8.052822792,CeFe5
mp-22379,0,-0.311446993,7.841000629,0.010305587,-193.9828037,-6.466093456,Y3(Co2Sn)4
mp-11550,0,-0.981719363,7.658756099,0,-86.6682444,-7.2223537,Sc2Pt
mp-10927,3.7944,-0.759358443,2.411313608,0.034867216,-96.56858214,-6.897755867,SrC2(SN)2
mp-775867,1.5773,-2.350599726,3.861727917,0.069567325,-411.0558959,-6.422748373,LiSbPO5
mp-755018,2.3999,-2.994881739,7.672158731,0.053066729,-40.52564388,-8.105128776,RbTaO3
mp-972058,0,-3.039569577,8.485643824,0.477355392,-33.88410959,-6.776821918,YbTmO3
mp-782821,0.8979,-2.734477938,3.421158726,0.094541906,-174.7607423,-6.472620083,LiV2(OF)3
mp-12024,0,-0.922282081,3.832459898,0,-83.05545982,-5.190966239,RbVSe2
mp-865771,0,-0.771650791,10.84650794,0,-17.72358326,-4.430895815,YbInPd2
mp-771854,0.0437,-1.939342303,4.31275219,0.093684202,-183.3826205,-6.549379303,Li4Cr5Co3O16
mp-776220,2.2216,-2.474534265,10.53760405,0.076843134,-314.4749191,-10.4824973,Hf2N2O
mp-28189,1.3206,-0.990319737,2.259310002,0,-59.2783295,-3.293240528,FeSeCl7
mp-3615,5.4227,-3.183248525,4.34115064,0.012334699,-163.9833035,-8.199165175,Nd(BO2)3
mp-3735,2.8647,-3.451648562,5.793523145,0.026864355,-228.4350201,-9.518125839,GdPO4
mp-862775,0,-0.305339603,8.879828337,0.005995673,-20.57506524,-5.14376631,LiInRh2
mp-557057,0.1728,-2.917357016,5.675254627,0,-218.5443248,-9.106013533,NbO2
mp-863703,0,-0.437349793,6.394564934,0,-16.85605636,-4.21401409,Pm2MgSn
mp-625318,5.0102,-2.106918821,2.376497923,0.031751704,-81.78998097,-5.842141498,Al(HO)3
mp-973339,0,0.040630813,10.33628437,0.040630813,-20.82498708,-5.20624677,Lu3Th
mp-781789,2.6893,-2.670225562,3.487768129,0.00548647,-522.7238136,-6.877944916,Li4NbIn3(PO4)6
mp-560262,0.1307,-0.942821664,4.16381303,0.056789174,-54.46793858,-3.890567041,Zn(InS2)2
mp-555104,4.3422,-3.196085054,5.680845588,0,-385.2107627,-7.407899282,Na2Er2B2O7
mp-862747,0,-0.751017807,8.815812978,0.054255055,-15.70262848,-3.92565712,Sr2PtAu
mp-761151,0.3686,-3.645227561,5.759799145,0.085056843,-159.7445674,-9.396739259,Zr6O11
mp-608555,2.5894,-1.908479395,3.269384417,0,-30.49959797,-3.388844219,Cs2SnCl6
mp-541180,0,-0.389689244,10.25151354,0,-46.97869882,-4.697869882,Te3Pt2
mp-557871,1.7915,-1.522896623,6.039480543,0,-80.02908614,-5.716363296,CuAsPbO4
mp-2866,0,-0.519077224,7.506670833,0,-31.89452005,-6.37890401,Yb(FeSi)2
mp-776150,0.3645,-2.132099686,5.052178632,0.060359144,-65.00190926,-6.500190926,ScAgO3
mp-8830,1.252,-1.478347821,5.814511318,0,-23.05156111,-5.762890278,NaRhO2
mp-758720,1.5711,-2.787218876,3.185344424,0.09038438,-55.60908284,-4.634090237,Li5CuF6
mp-1009596,0,1.323944639,9.324300665,1.323944639,-10.48272486,-5.24136243,PdN
mp-23133,0,-1.703068196,4.694063961,0.01112952,-54.56342401,-4.960311274,Sr2Cu3(BrO2)2
mp-560235,4.5767,-3.209224109,3.033385307,0,-413.4672469,-7.128745636,K9Sm3Si12(O16F)2
mp-971683,2.1936,0.111431921,2.337090456,0.111431921,-176.1188582,-8.386612293,C3N4
mp-17501,0.431,-1.401846204,5.358174149,0.00201376,-147.8890069,-5.281750245,Ba(ScTe2)2
mp-760415,2.1224,-1.17790732,2.516523583,0.005351051,-33.13219687,-4.141524609,Li3SbS4
mp-29219,0,-0.290965764,6.836386975,0.010402157,-201.7421464,-5.93359254,Ba2(Ni3B2)3
mp-22696,0,-0.385444408,7.835854331,0,-38.31773821,-4.257526468,NdInCu
mp-28835,0,-1.121873027,4.415889178,0.047814245,-36.81410512,-3.681410512,LiScI3
mp-21078,0,-0.09269691,8.274267657,0.008098071,-60.74605291,-7.593256614,Fe3Ge
mp-20193,0,-0.494235399,9.153781287,0,-42.2578925,-7.042982083,DyCo3B2
mp-29519,0.3003,-0.553428388,4.778721004,0.00054357,-55.12305295,-2.296793873,KAuI4
mp-30320,6.7979,-3.911172374,5.496038512,0,-181.8068703,-6.493102509,RbHfF5
mp-12640,3.0562,-3.47289877,6.602845394,,-76.88663357,-7.688663357,Ba2DyNbO6
mp-779980,1.9985,-2.54525642,10.38713177,0.006120979,-422.1287783,-10.55321946,Hf2N2O
mp-624486,2.6279,-2.139105463,4.058593806,0.037223662,-541.3357402,-6.014841558,K2Sn(GeO3)3
mp-21129,0,-1.956005439,5.528626559,0,-100.6056323,-5.589201796,Sr2Cu2O5
mp-505686,0.0117,-0.692660695,6.671445188,0,-159.4395679,-6.643315329,GdH3
mp-867677,0.8253,-1.531811816,3.718342336,0,-102.0577662,-3.189305194,LiAgF6
mp-754478,3.4356,-3.900629277,7.102128911,0.040132811,-58.8111862,-9.801864367,HfZrO4
mp-32880,0.448,-0.248573835,5.134750184,0.005467515,-6.22545472,-3.11272736,CuBr
mp-2058,0,-0.262284325,8.260441254,0,-100.2497333,-6.265608334,Ni3B
mp-962069,0,-0.425011099,6.148525621,0.12718442,-9.15409465,-3.051364883,LiAgTe
mp-631569,0,0.555682586,10.37674454,1.224291595,-24.25816068,-6.06454017,BaHf2As
mp-634062,2.49,-1.113429236,3.880224663,0.003745156,-52.20353389,-3.262720868,RbCdH2I3O
mp-774412,3.3285,-2.56004247,2.211115536,0.075590007,-398.5575634,-7.117099347,LiCr(PO3)3
mp-763358,0.8358,-2.548615044,4.118505179,0.075064099,-67.66097013,-5.638414178,Fe4OF7
mp-29986,0,-0.807570786,5.140890024,0,-45.81260519,-4.581260519,La2Al2I
mp-4404,0,-0.685799626,7.243477165,0,-32.94077322,-6.588154644,Sr(AsRu)2
mp-755346,5.1849,-2.367799919,2.18469301,0.052962215,-113.6040996,-5.68020498,Li5BO4
mp-753385,0,-1.808331775,4.835229081,0.067643135,-51.81168552,-3.70083468,LiAg2F4
mp-27820,2.5117,-0.138981607,0.891215475,0.032338834,-652.0779207,-4.794690593,B7H10
mp-2568,0,-0.530313253,4.161527116,0.036852435,-18.90895824,-6.30298608,YSi2
mp-570097,1.0058,-0.832577919,2.34674964,0,-25.96357809,-3.709082584,Sr(Li2P)2
mp-546757,3.7957,-2.432290436,4.185124764,0,-65.36049264,-5.941862967,Sn3PO4F3
mp-3324,1.78,-2.762758215,5.370802694,,-141.4566871,-7.858704841,Nb2SnO6
mp-862485,0,-0.379149908,10.36504036,0,-23.34043639,-5.835109098,GaCuRh2
mp-672368,0,-1.503289803,11.45579437,0,-169.1628206,-10.57267629,UVN2
mp-1009813,0.4292,0.1648448,4.371082088,0.1648448,-9.10502501,-4.552512505,SiSn
mp-777807,2.039,-3.139957176,2.696740409,0.079978282,-347.4844697,-5.42944484,Li2VF5
mp-6254,3.1262,-3.465315315,6.552643128,,-76.83924663,-7.683924663,Ba2TbNbO6
mp-753268,0.4071,-2.852598594,2.888249315,0.055097178,-69.70050815,-4.646700543,Li6CuF8
mp-780861,0,-1.645486923,4.556732145,0.106228554,-147.3172461,-6.138218586,Fe4O7F
mp-680722,1.9593,-1.638106073,7.64835729,0,-397.1813548,-5.367315605,As2Pb14Cl4O17
mp-4798,0.0359,-0.346850279,3.27298547,0,-95.36243858,-6.811602756,Sc(AlC)3
mp-18255,5.2951,-2.938335576,3.499427077,0,-261.9581633,-7.276615646,RbSm(PO3)4
mp-755529,2.0324,-2.120890928,3.822571839,0.029327854,-101.7521612,-6.359510076,SbPHO5
mp-757916,0,-1.656632933,8.618418935,0.01464465,-190.6239716,-5.776483987,Bi12AsO20
mp-850358,0.3441,-1.753589487,5.201235773,0.046296472,-78.63079663,-5.616485474,LiCuSbO4
mp-25053,2.0882,-2.203837047,5.667100848,0.268597878,-61.71056788,-6.171056788,Sr2NiMoO6
mp-676636,0,-3.866288276,7.015106384,0.011996041,-258.6422103,-8.621407009,Ce9SmO20
mp-567981,0,-0.10318461,8.478268975,0.038179032,-27.30009963,-6.825024908,CrGaCo2
mp-976783,0,-0.476598633,5.986911326,0.426634487,-17.19518328,-4.29879582,Ge3F
mp-774402,0,-2.404224902,2.809963029,0.042360728,-245.9046943,-7.232491007,VCr3(PO4)6
mp-569446,0,0.078966415,11.38837158,0.078966415,-18.64359116,-4.66089779,NiPb
mp-5819,0,-0.683519437,7.811676859,0,-29.00328401,-5.800656802,Pr(NiGe)2
mp-31874,0.3549,-2.401703514,2.313963425,0.046815292,-237.8239006,-6.994820605,Fe(PO3)4
mp-685415,4.1414,-1.704761627,3.505377003,0.00012171,-177.7662932,-3.555325863,Na3SmBr6
mp-761527,3.4365,-2.63776071,2.805621951,0.01540731,-100.3323037,-7.16659312,LiMnPO4
mp-559937,1.7816,-2.069946503,7.050083296,0.001681771,-439.2129725,-6.459014302,UTe3Pb2O11
mp-568656,2.0218,-0.204898949,3.171907941,7.67E-05,-150.6058865,-7.530294323,SiC
mp-27212,3.8902,-2.409222071,3.521115763,0,-297.7920039,-4.136000054,Sb2IF15
mp-2,0,0,11.44039798,0,-5.17814195,-5.17814195,Pd
mp-850880,0,-2.024539066,4.417146145,0.080176091,-145.1910373,-6.049626553,Fe4O5F3
mp-21757,0.0005,-3.365794107,5.618897332,0.000832411,-670.5810965,-8.382263706,Eu3Al5O12
mp-7973,3.4456,-2.910660469,5.625138229,0,-25.8771003,-6.469275075,RbNdO2
mp-604908,0,-0.268422612,5.991890534,0.007519769,-22.27267795,-5.568169488,CoSe
mp-1029,6.6232,-4.181387697,4.694961766,0,-17.30985702,-5.76995234,BaF2
mp-542733,0,-3.070664476,5.988231998,0.037057605,-270.9068419,-7.525190052,BaY2CuO5
mp-975045,0,0.733950572,2.166701478,0.733950572,-9.75049898,-2.437624745,Rb3Cr
mp-9556,0,-0.435778132,4.139151976,0,-19.37906349,-3.229843915,SrZnSi
mp-775259,3.3773,-2.995105126,3.456524364,0.051779712,-306.2076414,-5.888608488,Li2Mn3F8
mp-569030,6.3715,-1.808169383,1.23591599,0.01868166,-104.9553955,-3.88723687,BeCl2
mp-471,0.1427,-0.090444063,5.491634181,0,-20.96350007,-3.493916678,CdAs2
mp-571461,0.7257,-0.456940072,2.353151845,0,-18.20842811,-2.601204016,K4ZnAs2
mp-975216,0,-1.996231851,8.394153436,0.138286537,-36.1207945,-7.2241589,RbReO3
mp-973022,0,-0.051295956,9.457201365,0.244761192,-34.33577824,-8.58394456,ScRu3
mp-7937,0.6318,-1.536169334,4.103610301,0,-49.05011021,-6.131263776,NaNbS2
mp-1001,0,-0.764811323,4.760885629,0,-40.24794401,-6.707990668,BaN2
mp-971634,0,-1.181721561,4.539809845,0.034207037,-36.26474926,-4.533093658,NaNiO2
mp-31312,0,-0.343178225,7.39826129,0.005768256,-91.48970833,-4.158623106,Ga9Rh2
mp-756876,3.9056,-2.60687948,2.906830977,0.026196124,-166.7304083,-6.41270801,K3BaPCO7
mp-759424,4.4645,-2.594088884,3.44839436,0.05420512,-528.4367576,-6.60545947,Li7Bi2P7O24
mp-581775,0.7386,-0.185721598,6.38598985,0.005875046,-158.5264191,-3.048584982,Cs5(KPb6)3
mp-697120,7.5443,-2.068431007,2.092265061,0.047473171,-97.29657673,-5.405365374,BH3NF4
mp-976593,0,-0.244583126,6.93130677,0.150158675,-41.39787277,-5.174734096,Nd3Si
mp-776615,1.79,-2.427395089,4.05986334,0,-110.5498505,-6.909365655,Li4VCr3O8
mp-867835,0,-0.559229659,8.42757131,0,-29.92377455,-7.480943638,BeSiRu2
mp-631304,0,1.271529961,6.540965172,1.884688197,-19.73999223,-4.934998058,KNb2Se
mp-4658,4.5436,-3.211985511,4.105078426,0.004292296,-164.8810351,-8.244051757,La(BO2)3
mp-2725,0,-0.80274443,16.4601017,0,-49.52670352,-8.254450587,TbIr2
mp-863374,2.2396,-1.633272947,7.686666526,0,-134.9838341,-5.624326419,BiTeO4
mp-601344,6.0172,-2.311441642,2.564844935,0,-994.7240546,-5.526244748,LiZr3H18N4F19
mp-27124,0,-0.627049075,6.368015982,0.00847333,-82.44651153,-4.339290081,Cu4(BiS2)5
mp-775288,0.4548,-1.894746293,5.059553715,0.114827081,-159.8033661,-6.658473586,Cr3Fe2Sb3O16
mp-756951,2.751,-2.099312772,4.749151067,0.038658892,-58.42225661,-5.842225661,LiSbO3
mp-631484,0,0.813045028,6.642863655,1.094038999,-21.06155259,-7.02051753,TaTiAl
mp-771838,4.3639,-3.612591237,4.597024006,0.071969676,-391.811988,-7.83623976,La4Al6O15
mp-34465,2.7785,-0.56222396,1.446424255,0.056297207,-17.25704999,-4.314262498,Li2HN
mp-28733,0,-0.405346447,3.561972668,0,-587.3693062,-8.390990088,Sc3C4
mp-865013,0,-0.480149572,11.92922561,0.089621892,-21.58714638,-5.396786595,EuAgAu2
mp-567214,0,-0.857153108,8.948172847,0,-56.07867078,-6.23096342,NdSnRh
mp-28339,0,-1.141192763,7.316650551,0,-67.56998533,-5.630832111,CaPPt
mp-554821,3.4104,-1.509513064,5.520361834,0,-267.3841959,-5.142003766,Tb(IO3)3
mp-769118,1.1406,-3.10102684,7.103741008,0.016262922,-86.28790413,-7.190658678,HoSO
mp-774411,1.9101,-2.057425506,3.426226791,0.099339666,-29.95310855,-5.99062171,Li2VO2
mp-752433,0,-3.588339243,5.517232629,0.027196677,-170.7600238,-8.538001191,LiLa3Ti4O12
mp-753349,0,-3.07338413,3.427913844,0.069120495,-107.2995337,-7.664252406,LiTiSiO4
mp-972966,0,-0.585441419,10.96332378,0.006184561,-29.49715234,-7.374288085,Sc2OsAu
mp-3880,0,-0.479282738,5.698444773,0,-81.3713536,-5.812239543,Cr2CuSe4
mp-557969,4.5892,-3.135575022,4.28498975,0,-213.8643302,-6.683260317,LiLa2S2O8F3
mp-22914,0.5612,-0.669090787,4.165254785,0.00467319,-6.69132482,-3.34566241,CuCl
mp-569684,3.0734,-1.476353769,2.539223786,0,-312.1432229,-3.468258032,Zr(TeCl6)2
mp-753663,3.6748,-1.995870721,3.421736597,0.056571418,-61.01629352,-4.35830668,BaYBr5
mp-720397,1.2495,-0.739593641,1.824541738,0.085537412,-556.051177,-4.964742652,H18RuN5(ClO)2
mp-2696,0,-0.246433388,5.915484543,0,-4.92587531,-2.462937655,MgAg
mp-761132,0,-2.290108568,9.241501991,0.01543911,-306.0648318,-7.287257899,Ta5Pb11O26
mp-569153,0,-0.567797813,7.723877755,0.012828667,-216.9176282,-5.422940704,PrCoSb3
mp-995206,2.4459,-0.584928993,1.137173381,0.459901809,-89.08431227,-5.567769517,H2CO
mp-640391,0,-0.502598084,10.69018586,0,-87.59389276,-4.866327376,Tm5NiPb3
mp-631331,0,0.646559472,7.299691623,0.730627938,-11.71050202,-2.927625505,Si2HgTe
mp-779064,3.0096,-2.848979681,2.940671252,0.096957292,-112.0533277,-5.093333075,Li4FeOF5
mp-999502,0,-0.317417585,15.63834693,0,-35.10801426,-8.777003565,MoPt
mp-615,0,-0.10832569,3.419332296,0,-8.28837049,-4.144185245,YMg
mp-20849,0,-0.303514098,12.49762849,0,-20.44995417,-5.112488543,Pd3Pb
mp-1019565,2.9786,-2.67595958,4.656362794,0,-520.6905368,-6.508631709,Ca3Ga2(GeO4)3
mp-979935,0,0.214464927,4.997090247,0.214464927,-4.74518634,-1.186296585,RbYb3
mp-31572,0,-2.272614417,2.461480666,0.051497026,-232.4531982,-6.836858771,Co(PO3)4
mp-570683,0,-0.362842328,8.436445937,0,-14.64425625,-3.661064063,PrInAg2
mp-31746,1.9816,-2.633275121,2.603465242,0.073356517,-379.3775349,-6.774598838,Li3Cr(PO4)2
mp-19381,2.4945,-3.230125845,7.642118525,0,-164.2360902,-8.211804512,DyCrO3
mp-17143,2.7986,-3.622186,7.389305159,0,-289.4094941,-10.33605336,BaGd2O4
mp-706617,4.6642,-2.963523653,2.432438413,0,-222.7894191,-6.962169347,Na2AlSi3HO9
mp-778251,2.3268,-2.378931903,3.438784454,0.084730876,-265.8937829,-6.647344572,Li4TiCo2Ni3(PO4)6
mp-2068,0.8626,-1.85736112,5.294263336,0,-38.0760656,-4.7595082,RhF3
mp-570248,3.5755,-0.343767946,1.874699196,0,-548.5124751,-7.618228821,NaC2N3
mp-865665,0,-0.269425501,11.96773406,0,-42.13564028,-10.53391007,TiReTc2
mp-22229,0,-0.273176114,9.209603307,0,-25.41554879,-4.235924798,TbInCu4
mp-14790,0.4204,-0.031236304,5.982918525,0.008447094,-26.70674434,-3.815249191,Ge(Te2As)2
mp-769148,3.1686,-0.989858648,2.85043977,0.035046146,-153.2976213,-4.790550666,Sc(ClO4)3
mp-9837,2.4839,-2.826186729,6.94891601,0,-352.6746717,-6.531012439,Ba4Nd4Zn3PtO15
mp-3721,4.0578,-3.829197404,7.491654394,0.004721672,-86.92702753,-8.692702753,SrHfO3
mp-771194,1.8118,-2.448510477,4.675983926,0.092788296,-343.9611693,-7.817299303,Nb2Ge2O7
mp-23171,0,-0.949508525,8.212413576,0,-10.58094344,-5.29047172,PrBi
mp-763244,2.937,-2.101719057,3.068494639,0,-125.6730663,-4.833579472,ZnFeH4O2F5
mp-695772,1.8372,-2.499179248,3.039611537,0.022353525,-244.3470999,-7.186679409,Mo(PO3)4
mp-753524,0,-2.046853211,7.438795537,0.086311748,-143.3883341,-6.234275397,La2(BiO2)7
mp-5752,0,-1.083698912,11.91249208,0,-38.62424736,-7.724849472,Tb(SiIr)2
mp-559752,3.9582,-2.524884174,3.963145422,0.001711311,-168.6314448,-6.022551601,CsZnPO4
mp-21504,0,-0.734679036,5.596544278,0,-76.81431277,-5.90879329,V4GaSe8
mp-24510,3.6604,-1.507462479,4.417474441,0.014494047,-118.2332831,-4.926386796,BaH2I2O7