id,band_gap,formation_energy_per_atom,density,e_above_hull,energy,energy_per_atom,pretty_formula
mp-775131,0.21309999999999985,-2.1958552037202383,3.8515139502644837,0.07341767904514551,-161.9795642,-6.749148508333334,Co3Sn(PO4)4
mp-762005,,,,,,,
mp-9425,0.5552000000000001,-2.321988605026041,5.348113081925983,0.04086016644531298,-90.58430842,-5.66151927625,Sr2GaCuSO3
mp-565830,,,,,,,
mp-778689,,,,,,,
mp-554160,0.2684000000000001,-2.4168139926577394,2.7450091762044893,0.0,-303.47200992,-6.32233354,K2CuP2O7
mp-767679,1.3072999999999997,-2.302194059799118,3.6685131955414736,0.08769003166666955,-303.61929537,-6.325401986875,Li8TiMn3O12
mp-505700,1.4657000000000002,-0.9040231678593748,3.8736534860337835,0.0,-115.75998643,-3.6174995759375,KInSe2
mp-504946,3.2857,-2.7776441903826528,2.9249462071580226,0.008443446619047279,-327.74252711,-7.803393502619048,Nb2P4O15
mp-998762,2.6844,-2.619368267837035,6.532403032658429,0.0,-27.20100098,-5.440200196,MnTlF3
mp-555699,0.6809999999999999,-1.5853822993750009,5.602882752979691,0.0,-205.27829156,-5.131957289000001,BaLa(BiS3)2
mp-777046,,,,,,,
mp-28126,1.0387,-0.5497593055000003,3.9272992581364408,0.0,-93.03931353,-3.3228326260714285,K2GeTe4
mp-782703,,,,,,,
mp-23355,2.5498000000000003,-0.9914245590185716,3.2238817863670883,0.0,-78.60447465,-3.27518644375,PAuCl4
mp-556442,1.8738,-2.086947784637272,3.201796215408339,0.0,-282.35277332,-6.417108484545453,Tc2O5F4
mp-761568,0.4679,-1.5029027422916663,4.4507108824551,0.007934957500000728,-57.8995976,-4.824966466666667,Rb2CoO3
mp-621964,2.1282,-0.958741199361607,3.938597728472929,0.0,-97.14668470000001,-3.469524453571428,K2RbBiSe3
mp-32322,,,,,,,
mp-1020754,,,,,,,
mp-504457,2.6409,-3.5158389613124994,4.421075254492479,0.010606210156243634,-349.59943638,-8.7399859095,BaTi6O13
mp-567037,,,,,,,
mp-652001,,,,,,,
mp-756458,5.803000000000001,-3.77259644425,7.797712657466406,0.017803491949990757,-159.65191703,-7.982595851499998,ErAlO3
mp-1019589,1.7791,-3.8212349022916654,6.246603124305805,0.04546407968750188,-220.17805577,-9.174085657083333,Ce3Zr5O16
mp-540950,4.0226,-3.4150195235277776,6.5275840891607775,0.0,-241.19646075,-8.039882025,Ba3SrTa2O9
mp-11718,5.5258,-2.889002891845,3.671084492489152,0.0,-8.17908999,-4.089544995,RbF
mp-762627,,,,,,,
mp-767343,,,,,,,
mp-866314,2.7947999999999995,-1.395330808914117,3.1404608409193258,0.0,-462.70259159,-6.804449876323528,Ca5Al2(SiN4)2
mp-773197,1.4095,-1.7104449039254392,2.2942166677058267,0.05544880589912271,-244.14027971,-6.424744202894736,Li2Cr4O13
mp-2964,2.4272,-1.337642219969999,2.0499883734583766,0.0,-23.10659501,-5.7766487525,NaNO2
mp-6793,3.1910000000000003,-3.198859601250001,6.577619432435315,0.013258801805553055,-126.1370188,-7.007612155555557,BaLa2ZnO5
mp-573376,1.0558,-1.810997703304,6.928026475581158,0.0,-29.83136133,-5.966272266,Lu2CCl2
mp-755340,2.174,-3.3966044269687496,7.974981366341742,0.0,-38.23899675,-7.64779935,Tb2SeO2
mp-753783,2.6407000000000003,-2.0200622573333336,3.1906253287478723,0.054463382000004223,-98.95916489,-4.9479582445,Li5InO4
mp-764374,2.0342,-2.3045365434376013,3.1184263632303866,0.6045634576666679,-167.83877135,-5.5946257116666676,Li2Mn4OF8
mp-32383,4.1119,-2.4091790013938503,3.0469639703427323,0.07813122513888526,-307.56018211,-6.407503793958334,Li2NiP2O7
mp-541435,,,,,,,
mp-779775,1.3344999999999998,-2.935235333263889,3.3594493037167954,0.010056851166665659,-504.48067806,-7.006676084166667,Li24Ti11CrO36
mp-677192,5.2584,-2.1291482287257395,2.2329354781088657,0.0,-166.14848069,-5.729257954827586,K4PH5S3O16
mp-4135,5.1075,-2.6865773774642854,3.1125348378941675,0.0016192499999982954,-130.25481291,-6.512740645499999,RbPO3
mp-648072,4.7413,-2.6019495257142866,2.263294715067796,0.05072611041667141,-259.77802321,-6.4944505802500005,NaPO3
mp-773219,,,,,,,
mp-754505,0.8132999999999999,-2.7475824803093336,7.708829790794648,0.01332773000001808,-131.18692218,-8.745794812000003,SrTaNO2
mp-22876,1.8986,-0.8324159326077585,3.9853865559179855,0.0,-35.18837319,-2.199273324375,CsI3
mp-510367,3.6944,-2.1666132905357154,3.746316809651949,0.3029705681818173,-151.70314056,-6.895597298181817,Fe2P2O7
mp-780107,1.5433,-2.6114349580023233,2.8743816492153496,3.0865648791056888,-283.46341912,-6.913741929756098,Li7Cr3Fe(PO4)6
mp-753611,4.5483,-1.5698162329202858,1.483013999434307,0.005961240999999617,-85.0783417,-4.2539170849999985,PCl3O
mp-565692,4.0631,-2.47018245974812,5.264848101432578,0.004295611578945646,-502.01179726,-6.605418385,K3Bi5(PO4)6
mp-23571,0.7370999999999999,-1.3080909299166668,5.7597983649309565,0.0,-72.92803049,-4.0515572494444445,KBa4Bi3O
mp-17504,0.7976000000000001,-0.7977203750000004,4.630912107643057,0.0,-160.46793054,-4.457442515,Sr3(GeAs2)2
mp-31575,,,,,,,
mp-744347,2.6097,-2.322853069936667,2.7493540293031016,0.0,-253.5504208,-5.282300433333334,RbVH4(OF2)2
mp-641010,0.8807999999999998,-1.7439596121955556,6.138638677540492,0.0,-243.09804838,-6.752723566111111,La4Te3N2
mp-775869,1.4289999999999998,-2.2971446259848483,4.047292044116062,0.0677394645454612,-302.90019149,-6.884095261136364,Li4Cr5SbO12
mp-1016820,0.8454999999999995,-1.885815663416667,4.86338973280714,0.6298343834999978,-27.75526562,-5.551053124,MgSnO3
mp-647553,,,,,,,
mp-530546,5.5612,-3.266446316697532,1.6368751243429132,0.011551352469133748,-1280.5592693,-7.904686847530866,SiO2
mp-780597,,,,,,,
mp-770398,,,,,,,
mp-849545,0.4643999999999999,-2.5671287130933917,4.1438438260900625,0.08315624899305707,-236.05592006,-6.557108890555557,Mn12O7F17
mp-760170,1.9994,-1.900867135504827,4.8616991896413415,0.046033046379311486,-316.00987432,-5.448446108965516,Sn13(O5F3)2
mp-679984,0.6547,-1.7012904651808314,3.3941525749265917,0.0,-271.34600341,-3.9903824030882347,Cs4Ru2Cl10O
mp-14386,3.8623,-3.3296521240364587,5.500970942078582,0.0,-730.80874883,-7.612591133645832,Ba3Lu(BO3)3
mp-559117,,,,,,,
mp-775343,,,,,,,
mp-10851,5.5318,-3.265304739166666,2.371523973256482,0.01269292999999827,-71.13190743,-7.903545269999999,SiO2
mp-406,0.5893999999999999,-0.4637142999999999,5.4725121842415305,0.0,-4.97693231,-2.488466155,CdTe
mp-12647,3.4961,-3.577755066666666,6.800064763295188,0.0,-106.36972683,-8.8641439025,TbNbO4
mp-558842,4.793,-3.608591650650353,6.327439470921822,0.01960322648148249,-880.55210895,-8.153260268055558,Sm7BP2O17
mp-772842,2.8031,-2.111399975416666,3.619620429323069,0.03029604210317771,-208.36158557,-5.787821821388889,Na2Ge2O5
mp-673168,3.3923,-2.5972841725,1.4664353691802743,0.680713496666665,-65.11972233,-7.235524703333334,SiO2
mp-867193,0.4036999999999997,-0.8519967333333334,7.4787768461711615,0.0,-13.94724736,-3.48681184,Sr2BiAu
mp-675892,0.5739000000000001,-0.4569783909523808,6.526007780750427,0.11175463285714304,-51.1392938,-3.6528067,Yb(SbTe2)2
mp-779983,,,,,,,
mp-31870,,,,,,,
mp-976118,1.4435,-0.7168012625291661,4.203484315501294,0.017493567552083974,-90.22765798,-3.7594857491666662,HgH6I3NO
mp-758281,5.7824,-2.6387313077453007,2.7843249598698816,0.0,-424.79033030000005,-7.079838838333332,RbB2P2HO9
mp-765906,,,,,,,
mp-705861,2.1539,-3.0816774513855423,2.0498611028716205,0.11916952118975832,-582.39414734,-7.016796955903613,Rb10NaAl11Si13O48
mp-778748,3.0694000000000004,-2.1890662189814822,3.0192531571358727,0.1876015588888897,-438.6137127,-6.091857120833334,Li3FeBO4
mp-707227,3.6542,-1.9835781140364808,2.1487996057916923,0.08388065003824073,-291.26415939,-5.393780729444443,K5H3S5O14
mp-762771,,,,,,,
mp-767909,,,,,,,
mp-733581,3.5309,-2.00423004295575,4.452824971915494,0.0,-484.23001603,-6.052875200375,PrH(SeO3)2
mp-23611,1.9258,-2.7941996000892853,8.856650890850872,0.029872753571424937,-110.73714177,-7.9097958407142865,BaTa2Bi2O9
mp-572833,2.1903000000000006,-1.4565211231620925,3.3622174706837398,0.0,-265.6227039,-4.743262569642857,Cs3Sm(PS4)2
mp-850494,,,,,,,
mp-30302,1.9597,-1.8243609174600008,7.6852532497676656,0.0115167550000006,-50.0393325,-8.33988875,HfBrN
mp-7288,2.0315000000000003,-3.4471600081250005,3.71562755984472,0.0,-83.73011811,-8.373011811000001,Sc2SO2
mp-777140,,,,,,,
mp-24073,3.2235,-1.5080248749442862,5.379703737746771,0.7918877421428574,-94.17700551,-6.726928965,Gd(HO)3
mp-853268,,,,,,,
mp-11007,2.127,-0.8871273881205355,3.975220768027744,0.0,-89.34447988,-4.467223993999999,CaPSe3
mp-30986,3.3649,-1.96512993625,3.71950409149412,0.0,-152.89433975,-5.460512133928572,Zn3S2O9
mp-560066,3.4400000000000004,-2.3513402679527773,2.881771368801106,0.03618886472222282,-177.43253388,-4.928681496666666,SbSO2F5
mp-2292,3.532,-3.88330143,5.839900569092468,0.0,-336.20414213,-8.405103553250001,La2O3
mp-679975,2.8487,-2.176558875593749,3.621292747477987,0.023786561406249795,-341.37688491,-5.33401382671875,KGaO2
mp-865213,0.5637000000000003,-1.1479639965659991,5.9366279948013405,0.0,-58.8420309,-3.92280206,Ba8Bi4H2O
mp-4789,0.6013000000000002,-2.48851476975,7.623296677781122,0.0,-149.19591584,-7.459795791999999,PrRhO3
mp-5039,5.0422,-2.6994765915642858,2.300137597041651,0.0,-262.06451338,-6.5516128345,KPO3
mp-774371,3.4539,-2.997148232377187,3.17348498442846,0.08351315470588361,-95.23528166,-5.602075391764706,Li4Mn3F10
mp-1020109,5.3095,-2.9745369227017195,2.805765437584256,0.007686936249997167,-492.73381181,-6.843525164027778,LiMg3P3O11
mp-556689,5.5637,-3.8279994022309527,3.6980596370903687,0.0,-261.34107637,-6.222406580238094,KZrF5
mp-4759,3.6731,-2.0964399216666663,5.130456840366691,0.0,-308.40082492,-6.425017185833332,ZrTe3O8
mp-18743,3.4757,-2.669678882409821,3.263683916330768,0.2397057052272835,-158.78603353,-7.2175469786363635,CaMnP2O7
mp-752404,0.9855,-2.4729717380681815,6.1776436408460045,0.03745275000000614,-138.03657646,-6.274389839090909,Ba2Sb2O7
mp-768402,3.5141,-2.0227926621568635,4.2158264355286414,0.0564834804411749,-290.87862216,-4.277626796470589,Ba3Y2Br12
mp-27256,4.1981,-1.859658319655172,3.022009773735891,0.0,-344.37000897,-5.937413947758621,Sb2(S2O7)3
mp-28319,1.2280000000000002,-0.1631954241666668,6.667264390938432,0.0,-38.43404845,-3.202837370833333,PtI2
mp-561474,3.6727,-2.450249196601852,2.496840099455138,0.0,-397.58731995,-5.5220461104166665,K3LiSiO4
mp-762796,,,,,,,
mp-7444,0.5411000000000001,-0.4191231337499999,3.818727454757064,1.4312499998503368e-06,-47.5822394,-2.9738899625,RbSb
mp-703550,4.1993,-2.18834426399781,2.8559807705434594,0.021677555499994842,-465.38330101,-5.817291262625001,LiZnPH2O5
mp-28017,3.5069999999999997,-2.8763625695370374,3.2847060440187885,0.0,-374.14830836,-6.928672377037038,Na8Ti5O14
mp-19588,,,,,,,
mp-961713,0.9726,-1.0237082466666674,10.155428471800338,0.0,-21.68202806,-7.227342686666668,ZrSnPt
mp-542836,,,,,,,
mp-775991,0.5668000000000002,-2.205709105803571,3.665343339986952,0.052188601840276405,-165.86381034,-6.9109920974999985,CrCo3(PO4)4
mp-763966,,,,,,,
mp-531530,4.183400000000002,-3.3529998290476186,3.4695775851681017,0.030534084285713806,-495.41708255,-7.077386893571428,MgAl2O4
mp-29288,1.9336,-0.4621258269999998,5.686390924906776,0.01625968333333194,-55.44728352,-2.7723641760000004,TlGeI3
mp-765128,,,,,,,
mp-766207,2.769,-3.56646800485,5.954738958280753,0.039312529314285534,-465.6536539,-9.313073078,Zr6Nb2O17
mp-541986,3.2722999999999995,-1.5321805359872411,2.4005250713642927,0.004070474439648919,-352.97532219,-6.085781417068965,K2LaH4N5O17
mp-772869,2.0335,-3.1924224497685176,8.186201749095924,0.041667603518519065,-505.23834948,-9.356265731111113,Ta7InO19
mp-769997,3.781,-3.647726110089285,4.124661650342671,0.08566567223214605,-245.67265498,-8.774023392142857,La2Ti3O9
mp-568855,1.3910999999999998,-0.5255688436095779,3.9909443165429495,0.0,-160.43089913,-3.6461567984090912,K2Hg(PSe3)2
mp-8799,2.2948,-1.2757422602083337,2.717555575742233,0.0,-19.18594745,-3.1976579083333334,RbNaS
mp-997554,0.3689,-1.707024381666666,4.466912953587338,0.10719664997727296,-129.05005794,-5.8659117245454535,Li4Fe3(CoO4)3
mp-12433,0.9179999999999992,-0.21847999246000013,4.778072948009753,0.061859952083333176,-27.8248603,-4.637476716666667,NaSnN
mp-775731,0.18049999999999988,-1.6805354878947374,2.602102955236857,0.08527928236842007,-361.2297892,-4.753023542105264,Li9(NiO4)2
mp-778926,,,,,,,
mp-745115,,,,,,,
mp-30303,0.8899999999999997,-1.5802509521590917,8.908191651862294,0.0,-125.29616855,-5.6952803886363625,Bi4O7
mp-18860,2.3671,-2.772849040509259,3.063754233530448,0.0,-251.30224496,-6.9806179155555546,Li2VSiO5
mp-25497,,,,,,,
mp-555387,5.5237,-3.207754511858975,3.6205881510072686,0.0,-407.16266331,-7.8300512175,BaSi2(BO4)2
mp-542009,,,,,,,
mp-562394,4.4081,-2.9628449148632385,3.4251188672406774,0.0,-734.48637543,-6.8007997725,Cs4Li2(Si2O5)3
mp-17177,3.2709,-2.7750015186111106,5.373026238528694,0.0,-287.64430866,-7.990119685,Nb2ZnO6
mp-770848,1.2706999999999995,-2.294740654458333,4.668764964885272,0.06307591950000102,-132.71453605,-6.6357268025,Li2TiCo2O5
mp-18866,2.4895,-2.6459081122321413,3.4911072642240186,0.02347000142855293,-213.70918041,-7.6324707289285705,CaV4O9
mp-28899,0.8134999999999999,-0.14154159666666646,7.153428410866559,0.0001555900000003163,-34.13791668,-2.84482639,Hg2As3Br
mp-704189,1.0939,-1.9484637430952372,2.6795826340318287,0.19238196430555465,-471.85257588,-6.553507998333334,CoPO4
mp-28805,0.9996999999999998,-0.7364451495192308,9.33715122669708,0.0,-130.97914107,-5.0376592719230775,Tl2Pt5S6
mp-697111,5.5175,-1.3887052844966667,0.9580914200612579,0.0,-59.56501858,-4.963751548333334,H2O
mp-773306,,,,,,,
mp-776745,,,,,,,
mp-773918,0.9178000000000006,-1.6101539319191909,8.837311982780086,0.029131098282836557,-563.08845043,-5.687762125555556,Zn(Bi19O30)2
mp-706273,3.4639999999999995,-1.1800508647869996,3.9762184074332674,0.0003238963749998547,-357.38124159,-4.467265519875,KH(IO3)2
mp-4649,0.9988,-1.0943905844921886,4.265618022298735,0.0,-84.30352383,-5.268970239375,PdSe2O5
mp-764830,,,,,,,
mp-758063,0.2832999999999997,-2.8299352134145024,2.7901291159419346,0.0981680990350684,-325.91797218,-7.407226640454545,LiTiP2O7
mp-775623,,,,,,,
mp-779973,2.0603,-2.544111917201998,10.410605064881757,0.002381412750001033,-422.28431176,-10.557107794,Hf2N2O
mp-697253,5.1988,-1.3574198318466668,1.6389611713303212,0.0,-155.64223962,-5.764527393333332,SiH12C2(NF)6
mp-767868,,,,,,,
mp-558616,4.4518,-2.856201251369049,3.7455142703402458,0.0,-299.65354251,-6.810307784318183,SrZnP2O7
mp-721086,0.4155,-1.6312617443888449,2.0179231023446444,0.047235221560681495,-361.00895677,-6.118795877457627,Li2CuP6H20C2(N3O11)2
mp-770887,2.4289,-2.072945141249999,2.6510619196076544,0.010575437875002258,-163.19917223,-6.799965509583332,BeCrO4
mp-30187,3.5021,-1.7244780490441172,5.163482283265809,0.007852805588240308,-94.64783055,-5.567519444117647,Ga2Te4O11
mp-781687,,,,,,,
mp-39288,2.7822000000000005,-3.3256010215833336,6.029907713223941,0.090349918916667,-77.28318192,-7.728318192000001,BaLaMgNbO6
mp-647813,3.2215,-2.081746801194581,4.012747043480059,0.0,-163.94296679,-5.855105956785715,Cs2CrO4
mp-36582,3.1472,-0.949443148915,1.7700691083410294,0.0018551933333328388,-10.87327898,-3.6244263266666663,NaHS
mp-557019,4.3089,-2.4357944328267194,3.8069538978520328,0.0,-175.09969669,-5.4718655215625,RbErSeCl2O3
mp-765334,,,,,,,
mp-559933,1.4312,-2.5832511393975004,5.5782662859687555,0.005197365494793439,-65.99532292,-5.499610243333334,Ba3In2Cl2O5
mp-764214,,,,,,,
mp-585305,4.1808,-2.5866705715269678,3.5571545954714487,0.042982997214281234,-644.03399662,-6.571775475714286,Li9Bi3P8O29
mp-27887,0.4059999999999997,-0.657571177802198,3.6690161814106856,0.0,-136.95723118,-5.267585814615385,Ba3(Si2P3)2
mp-568062,1.2702999999999998,-1.3810899936718748,7.382448432175647,0.0,-19.48462269,-4.8711556725,DyTlSe2
mp-863864,,,,,,,
mp-504870,,,,,,,
mp-780899,,,,,,,
mp-765826,,,,,,,
mp-29232,4.6766000000000005,-3.1864908069214284,7.0775711251032,0.008463592142851972,-157.00368383,-5.6072744225,ZrPb3F10
mp-23752,3.003,-0.2928983333822001,3.490043728875413,0.006896852714284307,-18.39693564,-2.6281336628571426,Cs2MgH4
mp-762703,,,,,,,
mp-652479,4.1917,-2.5617437294982994,3.1788903956129064,0.00027089071427788264,-695.94459682,-6.213791043035713,LiZnPO4
mp-12226,5.5977999999999986,-2.9145281489880954,3.2619026209785087,0.0,-524.57200787,-7.2857223315277775,NaNd(PO3)4
mp-18832,2.9836,-2.8163410821337496,2.883858782286956,0.0,-179.61945624,-5.6131080075,K2VO2F3
mp-699403,1.8927,-3.2536572352499986,6.357461721461446,0.028169006124985074,-327.12663545,-8.17816588625,BaLa3TiCr3O12
mp-676527,3.2558,-1.6807875485759545,2.843157303128099,0.007173414353448315,-154.02208203,-5.311106276896552,Na4PH5Se3O16
mp-23038,0.6589999999999998,-1.2651907575862071,4.132924816920843,0.0,-42.4289839,-4.24289839,CsVBr3
mp-6168,1.2553,-0.7066033466458327,4.153068894409543,0.0,-329.21124625,-4.572378420138889,K3Nb2CuSe12
mp-632815,4.4936,-2.5387141103523807,2.5570968837952446,0.058321514400000225,-297.89830054,-5.957966010800001,Li10Ge(PO6)2
mp-31795,,,,,,,
mp-20343,1.0667,-1.0963596606249997,6.533399824104329,0.026327041249999183,-34.92574825,-4.36571853125,NaAuO2
mp-764266,,,,,,,
mp-773699,1.3687,-1.9010619953571424,4.7347342299119815,0.10252425062499704,-182.02917254,-6.5010418764285705,LiMg(Fe5O8)2
mp-777472,3.9064,-2.8334129706544435,2.7740713542545623,0.08717577500000306,-121.31159301,-5.05464970875,LiFeF4
mp-620862,,,,,,,
mp-22859,1.8492,-0.2570876649999999,6.837552570378143,0.0,-4.68362683,-1.1709067075,HgI
mp-28276,4.0078,-1.8726476948125,3.7331392129697942,0.0,-120.67004519,-3.7709389121875,K2PrBr5
mp-14836,2.3920000000000003,-3.0924378078613284,5.837913583755769,0.0,-478.62710212,-7.478548470625,Pr4Si2Se3O7
mp-1323,7.3085,-3.8782941407362497,2.875641788220089,0.013752568906255648,-376.32644471,-5.88010069859375,AlF3
mp-776723,,,,,,,
mp-759030,3.3023,-1.5181253160555557,2.5574511045861024,0.0,-585.88496387,-6.102968373645832,KSmH4(N2O7)2
mp-626256,3.7465,-1.1681541379049998,1.6270687627348512,0.0,-175.9983086,-5.49994714375,H3NO4
mp-763953,,,,,,,
mp-504806,1.923,-1.9152779223282832,4.377970141936081,0.0,-162.72697449,-4.931120439090909,K2Li14Pb3O14
mp-935267,2.2975,-2.436873246995614,3.6763956446641095,0.031990800921053435,-558.44129093,-7.3479117227631585,Li4UC3O11
mp-767842,,,,,,,
mp-775789,,,,,,,
mp-754725,1.7895999999999996,-2.29618236125,7.913659921669423,0.015222805500006762,-124.89166955,-6.2445834775,UCd3O6
mp-771859,,,,,,,
mp-19700,,,,,,,
mp-1019529,4.4359,-3.256794841144368,3.7184682642172096,0.0,-538.26493058,-7.5811962053521125,Ba8Al10B12O41
mp-773269,,,,,,,
mp-761749,,,,,,,
mp-989645,1.4073000000000002,-1.2069810910946657,6.517844953995696,0.014557753500000103,-98.63304629,-9.863304629,YWN3
mp-621612,1.9374,-0.7666723379166664,6.276837525767523,0.02004920749999961,-49.15143912,-3.071964945,AgPb2Br5
mp-768218,4.8642,-2.8021759403323423,3.787137229792685,0.09173488874999693,-172.55745869999998,-7.1898941125,Li2TmPCO7
mp-555909,3.7369,-3.034724207848374,6.038241220468862,0.0,-137.07634523,-6.8538172615,Tb5Se2Cl3O10
mp-762396,,,,,,,
mp-626083,5.2745,-2.60252734372111,1.8664683448910129,0.045706197222225235,-123.95465614,-6.886369785555555,Si2H2O5
mp-769610,3.2814,-3.4465873974479164,6.20778075204783,0.04973088726200281,-407.66300473,-8.492979265208334,Ca5Ta4O15
mp-542545,1.1730000000000005,-0.7211338423400737,4.074784636673225,0.0,-157.81323311,-4.641565679705883,K3Nb2AsSe11
mp-29743,2.0422,-3.639801425265152,6.3445705440502955,4.760670451808835e-05,-727.34633686,-8.2652992825,Sr5U3O14
mp-755835,3.265,-2.397346469953704,5.940716377521018,0.1023113102777744,-123.91713218,-6.884285121111112,LiBiB2O5
mp-853253,,,,,,,
mp-769394,3.6031,-3.2892153970833333,6.471663807577982,0.08041404666666452,-237.88131611,-7.929377203666665,Ba4Ta2O9
mp-782704,,,,,,,
mp-559691,4.2849,-3.4531643361458335,2.9771423569650954,0.021282047951415528,-176.14219619999997,-7.339258175,Ca2Al2SiO7
mp-27821,0.8283000000000005,-0.025140631734693386,3.756361767844553,0.0,-68.39570049,-4.885407177857141,Ag3P11
mp-23202,1.3567999999999998,-0.4663510175000001,5.133000055802754,0.0,-10.41678966,-2.604197415,InI
mp-8180,2.9396,-1.4731009345593336,2.2673019256250204,0.0,-59.92779224,-5.9927792239999995,LiNO3
mp-6591,7.31,-3.897449401163704,3.2698258337609887,0.0,-101.8886507,-5.6604805944444445,SrLiAlF6
mp-767164,,,,,,,