id,band_gap,formation_energy_per_atom,density,e_above_hull,energy,energy_per_atom,pretty_formula
mp-5594,4.2797,-3.61752970534091,3.2945183476271547,0.0,-93.02420456,-8.45674586909091,Sc2Si2O7
mp-761638,,,,,,,
mp-8753,0.9356000000000001,-0.36616301416326535,2.708215518021462,0.0,-18.13493763,-2.5907053757142857,K4HgP2
mp-4886,2.4505000000000003,-2.618439045625,5.686554373644361,0.0,-27.832437,-6.95810925,NdCuO2
mp-542071,,,,,,,
mp-23029,1.8674000000000002,-0.9084367663423646,4.285005254257808,0.0,-74.7568052,-2.6698859,Cs3Sb2I9
mp-17583,2.6909,-1.7059706130555554,7.0617932138681825,1.064637132638886,-288.49309496,-8.013697082222222,Gd2TeO6
mp-556399,2.8572,-1.554760662065218,4.896989293363155,0.0,-496.56499199,-5.397445565108696,LaTiI5O16
mp-545788,0.4722999999999997,-1.2135865730014277,5.410370232373316,0.0073962999999963586,-35.66208895,-5.094584135714285,Ba3ZnN2O
mp-9576,1.1208,-0.700031096296875,3.8512447122199385,0.0,-60.12538349,-3.757836468125,KSbSe2
mp-554216,2.0899,-1.1149539963316326,2.7273327443383004,0.0,-245.74983931,-4.388389987678571,K3Bi(PS4)2
mp-636225,,,,,,,
mp-767254,,,,,,,
mp-972600,1.6532,-2.3572725712500002,9.091134718903119,0.01573158674999675,-137.33902083,-6.8669510415,UCd(PbO3)2
mp-561449,0.667,-1.9603778497516664,5.004792761822827,0.010843354236159897,-131.66987021,-5.486244592083334,OsOF4
mp-29895,2.4206,-0.9346763426785716,4.3931146521969815,0.0,-150.06394144,-2.6797132400000003,Rb3Bi2I9
mp-769635,1.3223999999999996,-2.4384795460416657,3.9868082574458468,0.020063410625000166,-166.04624277,-6.918593448749999,Li2VCrO4
mp-779864,1.9892000000000003,-2.537376845451999,10.399736883661951,0.0091164844999998,-422.01490889,-10.55037272225,Hf2N2O
mp-976058,,,,,,,
mp-704546,2.6639,-1.9064874602272726,2.891501637620834,0.0016137461363641137,-546.11097889,-6.205806578295454,RbNaCr2O7
mp-643896,4.3873999999999995,-2.0086874306146663,3.550560925548744,0.017613074333329592,-87.62435502,-5.8416236679999995,Na2Hf(HO)6
mp-770715,2.8695999999999997,-2.140828241666667,6.979470556784744,0.0913391019444445,-237.61901319,-6.600528144166667,Ga2WO6
mp-31643,,,,,,,
mp-555679,0.3066,-3.5605290830155556,5.083118415725751,0.18392317916666556,-54.48391857,-6.05376873,Na2UF6
mp-7462,1.4271,-0.9255469317633924,6.547849053924435,0.01598635242063029,-55.12931983,-3.937808559285714,Hg2SeO4
mp-530449,3.6298000000000004,-2.7143449513736275,3.499114394434256,0.0,-591.9704871,-6.505170187912088,Ca3(AsO4)2
mp-35746,2.1883,-2.4351827394047625,4.1973827359081985,0.07201010785714246,-91.11973842,-6.508552744285715,Sr(YS2)2
mp-25305,0.7880000000000003,-3.3321593508333325,4.168938674164424,0.0,-93.55031493,-8.504574084545455,Y2Ti2S2O5
mp-761292,,,,,,,
mp-676673,2.2913,-1.0661847026900002,1.9742215718899527,0.2989785618749998,-30.64428746,-3.8305359325,NaClO2
mp-780821,,,,,,,
mp-754165,2.6997,-3.1104302627500005,4.754268199028738,0.01760347824999986,-75.29941349,-7.5299413490000005,ScGaO3
mp-776705,,,,,,,
mp-766134,2.3813,-1.5686737007137936,2.7629956432508664,0.006616333103449001,-342.00809641,-5.896691317413794,UH12(NO7)2
mp-25525,,,,,,,
mp-662499,4.6099,-2.2680398137893336,2.70858215691277,0.004242055333333994,-106.07509193,-3.5358363976666665,RbMgCl3
mp-755027,0.2812000000000001,-1.9776587857954553,6.866610271200393,0.0924570206818176,-129.92372469,-5.905623849545455,In2Sn2O7
mp-555418,3.1097,-1.848684107956207,2.6033711717647456,0.03343864843288191,-397.31858797,-6.850320482241379,Rb3NbH4(C2O5)3
mp-754991,1.4853999999999998,-1.7590240165900002,6.044556896190411,0.05919181642856941,-168.34762588,-6.01241521,Ga3NO3
mp-756198,1.7888,-1.4518652104307472,1.9161711619144384,0.00024590519999545535,-112.60187195,-4.504074878,Li14Mn2S9
mp-25062,,,,,,,
mp-761304,,,,,,,
mp-767722,1.2461,-2.509743063339286,2.8234216780185077,0.0,-288.84794897,-7.22119872425,VFe(P2O7)2
mp-849702,,,,,,,
mp-763855,,,,,,,
mp-778718,,,,,,,
mp-707981,3.3404000000000003,-2.324406167205308,3.422914302633577,0.0,-361.85403675,-6.7010006805555555,Y4H9NO13
mp-28781,5.7458,-4.128998382518421,4.115103910507179,0.004650754078971531,-130.18322231,-6.8517485426315785,PrZr3F15
mp-556639,3.441,-3.5814434941666655,6.941293074145383,0.0,-106.35882944,-8.863235786666666,DyNbO4
mp-765941,,,,,,,
mp-566036,,,,,,,
mp-764007,,,,,,,
mp-28025,3.5107000000000004,-1.9075711527343753,4.038349253900548,0.05791970783333866,-383.57181114,-5.9933095490625,Sn2SO5
mp-23376,2.1709,-0.48325864248263883,3.335787486058909,0.0,-44.66362992,-2.4813127733333333,GaSeBr7
mp-573751,3.2818,-1.4867595983688888,2.219958422154109,0.0,-116.18667993,-3.227407775833333,AlTeCl7
mp-565827,,,,,,,
mp-510549,4.787100000000001,-0.5294996161585713,1.6872607213682747,0.008658207142857144,-138.82364027,-4.9579871525,K3B12H12Br
mp-715333,1.0723000000000003,-1.7248370183333321,5.192106922551924,0.06416223533333643,-199.98391661,-6.666130553666666,Fe7O8
mp-762724,,,,,,,
mp-706664,3.409,-0.16800398827797008,0.9297493369438956,0.005489127574728414,-902.19659796,-4.9032423802173914,B10H13
mp-585265,1.3701999999999999,-2.5128145109656086,3.2761414652230463,0.034847223333336785,-257.91339508,-7.164260974444444,LiMo2(PO4)3
mp-554144,2.8281,-2.6568106844633625,3.0110186354862734,0.3695750152083326,-60.11848863,-5.0098740525,K3Mn2F7
mp-778450,4.2257,-3.810638269916666,6.845937045979668,0.06675807124999977,-165.77550935,-8.288775467499999,LaSmO3
mp-32008,,,,,,,
mp-697664,2.0429,-2.4700299026190473,3.3356330325155272,1.1489065900888562,-298.11510799,-7.45287769975,LiCr4(PO4)3
mp-762491,,,,,,,
mp-28103,0.5640999999999999,-1.5413640674968183,2.7048509355645747,0.013664033428025135,-172.01625364,-3.90946031,USCl9
mp-762258,1.4844999999999997,-2.0600535490833334,5.7076639365272515,0.04867820566666747,-175.41083677,-5.847027892333333,Na2Sn4O9
mp-3664,1.6725000000000003,-1.7824039515625003,6.013809177528149,0.0,-21.20539167,-5.3013479175,NdTlS2
mp-764795,,,,,,,
mp-30003,1.6517,-1.4342176028125,4.897038071096206,0.0,-258.67871119,-5.389139816458333,AuSO4
mp-605694,5.1190999999999995,-1.7504923676632143,2.494865244541315,0.009393577678563858,-634.02082795,-5.660900249553571,NdH12S2NO12
mp-764358,,,,,,,
mp-694999,2.1555999999999997,-2.671925875601826,3.0617854033691336,0.004687246666654765,-243.07164732,-6.751990203333333,Na3V2P2O10F
mp-779396,,,,,,,
mp-557955,3.5450999999999997,-3.270594593888889,3.1714725945088085,0.004230432108578874,-494.27003803,-6.8648616393055555,Ca3Al4ZnO10
mp-778224,0.9338999999999995,-3.222212180384614,6.808776722114064,0.04173989259615318,-201.66485662,-7.756340639230769,La4CoO8
mp-766110,,,,,,,
mp-773719,,,,,,,
mp-768223,2.2270000000000003,-2.6821494341020116,5.0462183433953305,0.0,-73.10757382,-6.092297818333333,Cs2CeO3
mp-3828,3.9423000000000004,-3.4532380971428576,3.929005748742886,0.0036513592857128074,-101.13090209,-7.223635863571429,BaAl2O4
mp-1006058,2.0871,-2.5232546751562506,7.496202590560447,0.02082607812499937,-109.03636063,-6.814772539375,UCd2O5
mp-556791,,,,,,,
mp-760637,3.7249,-2.499848006596321,4.448364392535106,0.06055650577272953,-147.67979462,-6.7127179372727275,LiBiP2O7
mp-764193,,,,,,,
mp-1875,4.3688,-2.413093083162857,3.3157411780196924,0.0,-114.23301326,-4.079750473571429,TeF6
mp-770011,,,,,,,
mp-767025,,,,,,,
mp-15335,0.2839999999999998,-2.6723948837499996,8.12848810226804,0.04627724652777587,-250.08078271,-6.946688408611111,Lu2Cu2O5
mp-764390,,,,,,,
mp-6753,4.7909,-3.117272775625001,2.7734375564763147,0.005168560606088057,-652.28514713,-7.412331217386364,Ca5Si2C2O13
mp-6560,3.9829,-2.330051378963,2.182349921425336,0.0,-52.29105356,-5.229105356,KSO2F
mp-767087,,,,,,,
mp-569271,,,,,,,
mp-2826,2.5673,-2.445102633875,6.1989900834397025,0.0,-63.37276762,-6.337276762,Lu2S3
mp-762790,,,,,,,
mp-554801,2.9914,-3.3711625188038092,4.038282539244568,0.019708437261916956,-683.94842861,-8.142243197738095,Ca3Nb4(O6F)2
mp-759868,2.5044,-2.4311621465357143,3.726548136541268,0.09258598375000204,-259.59170774,-6.4897926935,Li3Sb2(PO4)3
mp-764852,1.9467,-2.7526748114620005,2.890313820803741,0.027879993749998278,-175.20116125,-5.840038708333334,V6O5F19
mp-1143,5.853700000000001,-3.4357283297500003,3.8734982774201856,0.0,-74.81357943,-7.481357943000001,Al2O3
mp-560600,0.5871000000000001,-2.19772330361013,4.819465063953122,0.003071724375000251,-68.74449642,-4.29653102625,CsNiPdF5
mp-768146,5.0719,-2.6184426014434528,2.573373732441244,0.0,-164.30209404,-6.845920584999999,Na2AlPCO7
mp-5238,0.7043000000000008,-0.9089814590625003,4.277152663721924,0.0,-35.41840432,-4.42730054,GaCuS2
mp-625993,1.9738,-1.326167413786154,2.905447468732716,0.06035833134617263,-65.29589009,-5.022760776153846,Te(HO)6
mp-780326,0.0,-0.6507147825000001,4.9118247522655984,0.27238030916666656,-151.97706314,-4.2215850872222225,Ni(IO3)2
mp-853134,,,,,,,
mp-771517,,,,,,,
mp-773278,,,,,,,
mp-779407,,,,,,,
mp-778058,,,,,,,
mp-762798,,,,,,,
mp-626973,4.5412,-2.1254913394479997,4.458339264216771,0.0,-220.1378543,-5.5034463575,Ba(HO)2
mp-556521,0.8484,-1.5919010256911772,4.1667730854664615,0.0,-298.0124592,-4.382536164705883,KNa7Pb2O7
mp-851264,,,,,,,
mp-540258,1.9482,-2.718525227899159,2.6594642176788352,0.038632826617648774,-253.42222157,-7.453594752058824,Ti(PO3)4
mp-6281,0.4321999999999999,-2.582014469772727,3.9991641874626302,0.0,-140.9223046,-6.405559299999999,NaCa3RuO6
mp-17945,1.8540999999999999,-0.34134897439174106,3.8061038786257955,0.0,-120.40032238,-3.762510074375,RbPSe6
mp-23004,5.126099999999999,-2.3113313642088733,2.9335414845035492,0.0,-35.62101608,-3.562101608,CsMgCl3
mp-6150,4.3216,-3.131645408809524,3.254625502449944,0.0,-310.65400891,-7.396524021666667,Na4Zr2(SiO4)3
mp-23137,1.8151000000000002,-2.821703819083333,6.695812299257477,0.0,-67.8814637,-6.78814637,Ba2YBiO6
mp-24423,3.8289,-1.4404049817622218,4.160340380232966,0.0,-21.7747188,-3.6291198,SrHBr
mp-28205,2.4307999999999996,-2.1626143473611106,4.44551065206448,0.0,-171.21915801,-6.341450296666666,Na3ReO5
mp-542974,2.4434,-1.4440681379387752,2.49934384002097,0.0,-267.70713856,-4.780484617142856,K3Nd(PS4)2
mp-8720,0.9609000000000001,-0.34950798593103444,3.890252191906843,0.32032991373563213,-38.31383281,-3.831383281,Rb2MnTe2
mp-760678,0.8935000000000001,-2.1839430271095654,3.974574846679572,0.0,-97.45031912,-4.236970396521739,Sb2H4AuF16
mp-24204,3.5467999999999997,-1.1677993845400003,3.649045600989276,0.0,-20.53321323,-3.422202205,CaHI
mp-773533,,,,,,,
mp-868263,,,,,,,
mp-557855,3.9604,-2.918989362261904,3.1506181089464156,0.0,-196.49012283,-7.017504386785714,CaGaBO4
mp-554702,5.6395,-3.3884197435393335,3.5581041115793193,0.1631634079166675,-88.47579369,-5.898386246,NaZr2NiF11
mp-1008785,0.6101000000000001,-1.2797828541666665,7.7132049972435075,0.18808010833333544,-21.60506861,-7.201689536666667,RuO2
mp-9427,5.2810999999999995,-3.1097313917478364,2.953525043092733,0.002271721666657456,-165.06314595,-7.502870270454546,NaYP2O7
mp-24505,5.011,-1.9721202133691755,2.1784362701684747,0.019600345325219592,-235.50878639,-5.744116741219512,MgAl2P2(HO)18
mp-764283,,,,,,,
mp-853170,,,,,,,
mp-541291,1.4075,-0.5549440828057145,3.137350462399098,0.0,-170.09731719,-6.074904185357143,Na3MoN3
mp-9812,3.5627999999999997,-1.83209123775,4.244193742056641,0.0,-64.76736604,-6.476736604,ZnCO3
mp-23420,1.0766000000000004,-0.014342217751322795,5.470406751892843,0.061869533853616154,-231.73828111,-4.291449650185185,Ge19(PI)4
mp-642938,2.2292,-1.7273627421249997,3.728626978582503,0.000994558100007481,-517.65484695,-6.470685586875,RbCr4BiO14
mp-5767,5.887,-3.5156598480952375,5.816342503229107,0.0,-96.19338733,-8.016115610833333,DyPO4
mp-777674,3.6468999999999996,-2.4978277269044447,2.852703868143262,0.42276101875000194,-113.25754716,-4.719064465,LiFeF4
mp-5403,3.8602,-2.7589042814583333,3.544837225154337,0.0,-156.58617232,-6.524423846666667,Rb2TiO3
mp-761607,,,,,,,
mp-19638,,,,,,,
mp-756276,1.7960000000000003,-3.9130859324999996,8.284036010781158,0.07100825124999943,-112.70290279,-9.391908565833333,CeHfO4
mp-763157,,,,,,,
mp-27632,1.1425999999999998,-1.7246026439511108,2.53548582161048,0.0,-35.62594746,-3.9584386066666664,K2TcCl6
mp-504908,1.0067000000000004,-1.832903778611111,6.485791192429671,0.0,-151.85038563,-5.624088356666667,In2TeO6
mp-755619,2.7261,-2.324133521444806,4.24341138222566,0.05825775727272742,-148.1925774,-6.736026245454545,Sn2P2O7
mp-777668,0.26419999999999977,-2.3783989339880955,4.7925162713089975,0.09435142955356213,-189.53421093,-6.7690789617857146,Li4Ti3Co3(SnO8)2
mp-17928,0.7854999999999999,-1.5267730657142853,6.543120914096265,0.0,-137.25774244,-4.902062229999999,Ba(ErTe2)2
mp-770165,,,,,,,
mp-18291,0.37599999999999945,-0.7880183859999998,5.795653556263507,0.0,-155.34372108,-3.883593027,BaSbTe3
mp-771266,,,,,,,
mp-761968,,,,,,,
mp-25685,,,,,,,
mp-541347,1.7008999999999999,-2.2516398808925002,6.449919242942036,0.0,-236.76345355,-4.227918813392857,Er2Au5F21
mp-778949,1.1139000000000001,-2.2987101458630956,3.374253241608201,0.05915717781250329,-194.81072512,-6.08783516,Li2CuPO4
mp-8398,7.049099999999999,-3.9079115786335406,6.575144024820062,0.0,-26.23620594,-5.247241188,CsYbF3
mp-771658,4.8340000000000005,-1.5892943375975268,2.1177680429544385,0.10483448637096426,-323.92785641,-5.224642845322581,Li2NiH12(SO7)2
mp-867077,,,,,,,
mp-770682,3.0599,-2.8220970700490198,2.739867517905526,0.11409916529410769,-242.356062,-7.128119470588236,Li2Co(Si2O5)2
mp-30300,3.1412999999999998,-1.821730590884888,3.7377654905584436,0.0,-95.15915668,-5.597597451764706,Cs3As5O9
mp-762967,,,,,,,
mp-557001,2.4269,-1.884680653830714,2.8326299516094084,0.07413792874999992,-72.09900105,-5.149928646428571,RbSO4F
mp-9793,1.5234999999999999,-2.5402110102604167,4.761689754673277,0.0,-100.30699136,-6.26918696,Ba3BAsO3
mp-541742,1.0436999999999999,-1.734771676295221,3.336667198049461,0.0586050820833357,-119.89787931,-4.282067118214285,Cs3Mo2Cl9
mp-695511,2.5761000000000003,-2.7170260722499995,4.1299556260650645,0.007406592124999278,-558.22022554,-6.97775281925,Na2CaTi2(GeO4)3
mp-773646,3.6990999999999996,-1.6470494499764938,2.8060311315035147,0.007343045511343682,-257.68248286,-5.856420065,InP2H9(NO4)2
mp-866306,1.6426000000000003,-2.4678798053571436,4.850979451218893,0.0,-170.48950142,-6.0889107650000005,Ba(NdS2)2
mp-778261,1.1414999999999997,-2.617818275748519,3.113759449896038,2.1799420546380883,-292.3418256,-7.30854564,Li4TiMn3Cr2(PO4)6
mp-29711,0.6318999999999999,-0.194934456,7.486905678814715,0.01586568374999997,-30.25576182,-3.025576182,Tl2Te3
mp-15547,3.9818,-2.9280403203027277,3.6168557269074126,0.0,-392.51432796,-4.4603900904545455,Na2ZnGaF7
mp-769911,,,,,,,
mp-765174,,,,,,,
mp-773843,2.2961,-3.023097770965608,2.8434046132148296,0.007091018194444132,-557.21052648,-7.73903509,LiTi2(PO4)3
mp-766938,2.5679000000000003,-2.876723142443333,4.096661994631354,0.009274909399978881,-386.51725668,-7.7303451336,K3Li2Nb5O15
mp-1019520,1.5532,-1.178499364559999,4.570850438000201,0.0,-167.27588827,-6.433688010384615,Ba3Ca2(SiN3)2
mp-779272,,,,,,,
mp-29114,1.2409000000000001,-0.7051820787541665,5.394356830660071,0.0,-517.10580083,-5.386518758645834,Re3Te4Cl5
mp-606393,1.9617,-1.4982675937500005,4.064234460733292,0.0,-106.99635239,-5.3498176195,NbBr3O
mp-622183,2.6003,-2.029809871166429,3.8543007161272587,0.0,-201.42765309,-6.2946141590625,Co2PClO4
mp-868425,,,,,,,
mp-17273,0.7858,-1.5340822503571434,6.4633707655505335,0.0,-137.58227217,-4.913652577500001,Ba(HoTe2)2
mp-753387,0.3171,-2.200904374065641,3.759814861087234,0.046146927692308104,-56.09162365,-4.3147402807692306,Li2Cu3F8
mp-560631,0.5872000000000002,-3.34870067084091,4.127406117247687,0.0,-359.21582371,-8.16399599340909,KUSi2O7
mp-27773,2.3715,-1.076227573383333,3.1699207249258854,0.015534864374998847,-224.44566426,-4.67595133875,H5IO6
mp-9783,3.9108,-2.7014846915384614,5.307818168481603,0.0,-84.15855335,-6.473734873076923,Ba3(AsO4)2
mp-770111,0.5491999999999999,-2.4013089466666666,7.649032932144359,0.015328805000002,-160.23132432,-6.67630518,PrBiO4
mp-570504,0.6692999999999998,-0.9693984432539684,8.292856344128404,0.0,-154.41119062,-3.67645691952381,Yb11InSb9
mp-6316,2.6296,-3.2940277475390616,6.71788341139043,0.02938824098958115,-487.83820941,-7.62247202203125,Er4Si2S3O7
mp-3810,0.7078000000000002,-1.4787415930555556,6.814357273188178,0.0,-48.40331229,-5.37814581,Hg(AsO3)2
mp-10103,7.6906,-3.984439484497037,5.0477851003119625,0.0,-103.15470024,-5.73081668,LiYbAlF6
mp-754613,4.4942,-2.8037995256934534,3.2838222561671686,0.02020815895833028,-169.58706193,-7.0661275804166666,K2ErPCO7
mp-31069,2.0702,-1.9647545514518636,7.700511249714952,0.004438856684779502,-281.8205878,-6.126534517391304,P2Pb8O13
mp-753920,2.1166,-3.433195216302083,8.900995738023362,0.0,-38.10333529,-7.6206670579999995,Tm2SeO2
mp-556719,3.3727,-3.1544326068166657,2.624634244039793,0.0,-223.82700204,-7.460900068,K2Ti(SiO3)3
mp-706937,3.319,-0.17207933405349962,0.9618888667885557,0.0026213694374996876,-793.54564585,-4.9596602865625,B9H11
mp-765892,,,,,,,
mp-554284,,,,,,,
mp-569843,1.5292000000000001,-0.8108418098850579,4.076517601457168,0.002299380000000184,-14.86808498,-4.956028326666667,MnBr2
mp-10970,4.103599999999999,-3.3293927210416667,6.676896531536879,0.0,-113.1409979,-7.07131236875,LiErO2
mp-555990,2.8061000000000007,-3.4886314697656244,6.685315405210136,0.019751170625001535,-251.69177502,-7.865367969375,Er2SiSO4
mp-766204,4.6201,-0.9622596506213394,2.016624125036403,0.08363519214090775,-405.07203592,-6.32925056125,ZnPH5C2N4O3
mp-2833,0.5211000000000006,-0.842849276666667,8.271921315104697,0.0,-146.50366387,-6.1043193279166665,IrS2
mp-14052,3.668,-3.0872998952499993,4.287392996213457,0.008359189875005058,-561.86364464,-7.023295557999999,Ca3In2(SiO4)3
mp-17914,2.5344,-2.5155314886458338,4.252230181503197,0.0,-148.03571712,-6.1681548799999995,CaGa4O7
mp-13189,1.3513000000000002,-2.014472275173611,5.503180986619363,0.0,-65.63088339,-5.4692402824999995,SrLuCuS3
mp-14363,3.5526,-2.116743579583333,3.697761270321244,0.0,-84.89021914,-5.30563869625,Rb2LiAsO4
mp-769766,,,,,,,
mp-777675,1.2234,-2.3934834872500006,3.0481522927848497,0.10082909499999015,-141.54620478,-7.077310239000001,Li3V5O12
mp-25178,,,,,,,
mp-863866,,,,,,,
mp-682592,0.30820000000000025,-2.0539959265572723,2.384583795475361,0.5490444279545441,-125.69062974,-5.713210442727273,K2Ca2C2O3F2
mp-558187,,,,,,,
mp-765937,,,,,,,
mp-10783,1.9741,-1.7241225205468744,5.477484671881226,0.0,-19.45125598,-4.862813995,RbHoSe2
mp-16699,3.0808,-2.549032197302631,3.1543006685752606,0.26916617144736765,-528.84172901,-6.958443802763158,Li6Gd(BO3)3
mp-779789,2.9000000000000004,-2.4984341477852303,3.158162827574177,0.005930296190505224,-346.8850503,-7.2267718812499995,Li4Mn3Fe(BO3)4
mp-504894,5.0727,-1.5389455247985686,2.0426984928806298,0.0,-117.57638362,-5.112016679130435,MgH12SeO9
mp-767608,,,,,,,
mp-29755,4.782400000000001,-3.2978259795312503,3.4217781860466303,0.09318348916666608,-241.8287169,-7.557147403125,CaSi2O5
mp-554959,3.5187,-2.5444197488269236,3.475333734621431,0.0,-80.76706374,-6.212851056923077,K2Al2Sb2O7
mp-771388,1.4066,-2.2800483181508033,3.0632144933379286,0.11594598575000248,-283.31027802,-7.0827569505,MnP2O7
mp-14304,1.9818000000000002,-2.274756397976191,5.023085624601332,0.0,-80.90810242,-5.779150172857143,Lu2MgS4
mp-776709,,,,,,,
mp-555117,2.6076,-1.6889009230470828,6.773666327388511,0.0,-552.09472436,-5.308603118846154,Cs2Bi4O7
mp-997026,0.8294,-0.5053839601899996,2.9166424888672675,0.2629474557500009,-33.95708885,-4.24463610625,CuClO2
mp-14235,3.9542,-2.997475585705128,3.655789510935755,0.0,-366.09979507,-7.040380674423077,SrGa2(SiO4)2
mp-560223,2.9779,-1.9832360429176126,2.432722743165766,0.040791501943543196,-239.80911356,-5.450207126363636,K2Se(SO3)2
mp-8453,1.9875999999999998,-1.2824009445833333,3.643816604169303,0.011888565000000018,-20.77125076,-3.461875126666667,RbNaO
mp-754472,2.5451,-2.7663575881249995,6.990493283365937,0.00400812500000125,-28.23837683,-7.0595942075,HoCuO2
mp-554245,2.8424,-2.8540446328833338,6.755701020449168,0.002632072083332382,-87.31462272,-4.8508123733333335,BaPb2IF5
mp-853258,,,,,,,
mp-768176,3.5377,-3.6761732838888874,8.580557392675798,0.08540888666667712,-110.74507451,-9.228756209166667,TmTaO4