id,band_gap,formation_energy_per_atom,density,e_above_hull,energy,energy_per_atom,pretty_formula
mp-5857,4.9766,-3.2846368515476194,3.820737113532743,0.09889706178571434,-196.25266965,-7.0090239160714285,MgAl2O4
mp-13063,4.1342,-3.9368124407499985,8.655133151452336,0.05594280874999846,-41.68979081,-8.337958162,Tb2O3
mp-540924,0.4539,-0.4584939259999999,5.02695262658329,0.0,-80.43641118,-4.021820559,NbTeI3
mp-641534,1.3323,-1.357282048033854,6.022216262552584,0.0,-129.17158375,-5.382149322916668,Nd3CuSiSe7
mp-734733,2.7886,-0.5390845031746501,1.8511169431638428,0.0068762171604919145,-269.37658377,-3.325636836666667,Ca19(Mg4H27)2
mp-24845,,,,,,,
mp-770341,3.097,-2.5781647422916656,3.8937785011784936,0.009295164531243572,-219.03473856,-6.84483558,Li4AlCr3O8
mp-40478,2.4818,-3.159923597613637,6.4888405823829105,0.0,-336.27664817,-7.642651094772727,NaDy3Ti2(SbO7)2
mp-763061,,,,,,,
mp-765950,,,,,,,
mp-27791,4.1295,-3.120552039583333,3.5680497919157954,0.0,-109.70959608,-6.856849755,SrBe3O4
mp-583184,1.4505999999999997,-0.5095232402678574,5.941960533990432,0.0,-211.48330646,-3.7764876153571434,Tl3Ag3(AsS3)2
mp-27514,1.2305,-1.2991612367566667,2.1786476305507807,0.1694542356944444,-90.36756549,-3.76531522875,NaFeCl4
mp-781059,,,,,,,
mp-763174,1.7042000000000006,-2.5749718945038893,3.3440149218667834,0.1500419699999984,-146.31965726,-6.096652385833334,Li2VO2F
mp-662588,2.4952,-1.1595011368327282,2.5683394616845487,0.047655886628787066,-551.19348554,-6.263562335681818,SbRu2C6Cl7O6
mp-850882,1.6751,-2.5269609145626286,2.7581321432268973,1.9026281999254584,-320.6588111,-6.9708437195652175,Li2Cr(PO3)5
mp-10381,1.1110999999999998,-0.31277685649999976,3.311058533779617,0.0,-23.40022315,-2.92502789375,K2CuSb
mp-1019774,0.2709000000000001,-3.2773215560500004,2.8619754962229864,0.0,-600.34976898,-7.50437211225,K2CeAl(SiO3)4
mp-690635,,,,,,,
mp-680085,2.0167,-1.1430413820170455,3.9995410153105686,0.00046153490259781554,-308.81546238,-3.509266617954545,ZnS
mp-779831,,,,,,,
mp-777050,,,,,,,
mp-560022,1.7783999999999995,-1.1779423073934776,5.3942766914815286,0.0,-315.12635557,-6.850572947173912,Ba9Nb2CN10O
mp-1019535,4.911199999999999,-3.459356050769231,3.164377943333288,0.004639772307701406,-99.19385621,-7.630296631538463,BaAl2(SiO4)2
mp-648069,0.8106,-2.412381884305556,4.131154034074694,0.27958408717591343,-222.81230693,-6.189230748055556,Ca2GaFeO5
mp-772696,,,,,,,
mp-675223,1.521,-1.508979483697916,6.106847058711841,0.0869195809535297,-138.99440033,-5.345938474230769,La4Ag2Se7
mp-720299,0.8713,-2.138433259555,2.6051748330975566,0.002364139250000008,-213.67885692,-5.341971423,ZrCuH8(O2F3)2
mp-667283,2.338,-2.7839609013684714,5.622310247012121,0.0,-710.13952985,-7.397286769270834,Sr5Re3ClO15
mp-753299,1.2706,-2.1193780724699995,4.5146564507598175,0.09508606062500036,-64.24025787,-4.015016116875,LiAgF2
mp-18299,0.24230000000000015,-3.7571713967258327,8.845231292208311,0.0,-183.49047599,-7.645436499583332,UF3
mp-763185,,,,,,,
mp-764396,,,,,,,
mp-24018,2.622,-2.188340193041111,4.135480955091545,0.0,-208.32222857,-5.786728571388887,CaZnAsHO5
mp-566881,,,,,,,
mp-559982,4.8226,-3.2565941253027275,3.2547000218708435,0.0032996205681827817,-106.79173752,-4.854169887272726,Na2AlZnF7
mp-27366,0.7032,-1.5189498705560005,2.7752362827779624,0.0,-109.47913818,-3.649304606,KNiCl3
mp-764932,1.2708,-2.3887529153623177,3.270084293295378,0.027262664923926042,-322.55764393,-7.012122694130435,Li3Fe4(BO3)4
mp-510302,,,,,,,
mp-30247,4.1797,-2.0774968866146666,2.304077636311279,0.0,-26.95518461,-5.3910369220000005,Mg(HO)2
mp-560110,1.9645,-3.632088361111111,5.999201639077167,0.0,-317.07288697,-8.807580193611109,BaUTiO6
mp-761822,,,,,,,
mp-13374,4.396199999999999,-3.972283023916666,7.874661491805439,0.020477681750000087,-168.03790811,-8.4018954055,LaTmO3
mp-753995,4.582000000000002,-3.952591129583334,7.2909920186804875,0.08864685200000011,-173.76434043,-8.6882170215,YTmO3
mp-697691,,,,,,,
mp-31837,2.3937000000000004,-2.35194604159632,3.2675143317389415,0.20831852499999925,-148.12571271,-6.732986941363635,LiFeP2O7
mp-10182,1.3611999999999995,-0.5525607867460322,3.59206042504543,0.0,-10.23935168,-3.413117226666667,LiZnP
mp-352,4.0165,-4.030009485,9.967760511667569,0.0,-122.15417665,-10.179514720833334,HfO2
mp-760582,2.1273,-2.4422191625394443,4.3831881127431,0.09422659833333392,-51.13068028,-4.260890023333333,Li2AgF3
mp-40519,1.8023,-3.408815297983333,5.442040062552777,0.008209383650001456,-404.41246847,-8.0882493694,Na3Sr7Ta3Ti7O30
mp-763968,1.3161999999999998,-1.9314711420238095,4.5649471874838365,0.04216518154503568,-168.98266666,-6.035095237857143,Li4V3Ni3(TeO8)2
mp-18243,3.8351000000000006,-2.8813576374833327,3.30117319946335,0.014683265666667113,-207.82923724,-6.927641241333332,K2Si3SnO9
mp-767223,1.0982999999999998,-2.6384265620793035,3.1642605428802364,1.6054784905972177,-208.31744133,-6.9439147110000015,LiVCrP2(O4F)2
mp-24364,3.7708,-1.860237095632,3.0838035090670064,0.03980273366666154,-172.28861137,-5.742953712333334,CaAs2(HO2)4
mp-752648,2.2934,-2.6033640689285726,4.486476611651028,0.03537658571428448,-71.49128998,-5.106520712857144,Ba3(BrO)2
mp-673845,1.9508,-3.153065678839166,3.7598441934742963,0.030007625833334824,-195.75269296,-8.156362206666666,NbO2F
mp-40201,3.9839,-2.922460748837392,2.247668562343416,0.036744815000004934,-309.36340618,-6.725291438695653,Na8Be3Si9(ClO12)2
mp-756705,4.0582,-3.688389994416666,4.111222990667922,0.0604644231499929,-248.34358119,-8.278119373000001,YAlO3
mp-773491,5.1839,-1.5830527875306248,2.7107186650937574,0.043137160154500975,-354.29510525,-5.53586101953125,RbH2SNO3
mp-542201,4.4995,-3.2693942015384616,5.080951632975039,0.0,-102.42697094,-7.878997764615384,Ba3Nb2O8
mp-776798,,,,,,,
mp-31970,,,,,,,
mp-1020015,5.402900000000002,-2.8069221272789124,2.189526769217987,0.0,-820.2522962,-7.323681216071429,Li2B3PO8
mp-773698,,,,,,,
mp-989520,3.7526,-1.921612705956,3.1127101640071326,0.0,-33.89894045,-3.389894045,Rb2NaBiCl6
mp-764205,,,,,,,
mp-562247,,,,,,,
mp-770397,,,,,,,
mp-4534,3.3888,-1.8926790931250004,2.236321341148709,0.009213549270834951,-106.40416054,-6.65026003375,NaCO2
mp-763958,,,,,,,
mp-764455,,,,,,,
mp-756565,1.4827999999999997,-3.3074462992534714,3.7975007398873433,0.07613542276044605,-202.14690880000003,-8.422787866666667,Li2Ti7O15
mp-32004,,,,,,,
mp-667360,3.6042,-2.7733994541344336,4.085385253618998,0.0,-412.39276968,-4.9094377342857145,CsSbOF4
mp-767071,2.8039,-1.9413932989393936,2.568631975536685,0.07457343159092034,-297.34008897,-6.757729294772727,Li2Co(CO3)2
mp-768976,2.7439,-2.277484189649015,4.525974927547947,0.0,-150.79224782,-5.385437422142856,Cs3ScO3
mp-776470,1.0064000000000002,-1.883407711002856,11.513829860188501,0.0,-299.46118815,-10.695042433928572,Hf3N4
mp-5632,3.6273,-2.8600309175,6.150384581781047,0.0,-86.81628456,-7.23469038,DyAsO4
mp-849676,,,,,,,
mp-550908,3.6882,-3.8092629440833337,7.490189151721768,0.012869521000000715,-86.8599543,-8.68599543,SrHfO3
mp-763320,,,,,,,
mp-23634,4.4254,-2.5884803803883334,3.3593795694477877,0.0,-210.28625754,-4.3809636987500005,KSbClF3
mp-767893,,,,,,,
mp-763492,,,,,,,
mp-569810,2.5342,-1.4296169027377783,3.8235101096667887,0.0,-144.26003202,-6.0108346675,Sr2BIN2
mp-554930,1.3681,-1.0125991555824834,3.1557522156683824,0.0021880587755118697,-309.41884738,-5.525336560357141,Nb2AgPS10
mp-619127,,,,,,,
mp-766846,,,,,,,
mp-542814,5.511,-3.2736092929166665,2.0674536610447283,0.004388376249998771,-569.65318731,-7.91184982375,SiO2
mp-850746,1.2903000000000002,-1.7105142428916669,4.271963225657096,0.6997819112499961,-126.62221229999999,-5.2759255125,Fe4O3F5
mp-15503,1.036,-1.1071464456944444,4.729596369719718,0.0,-353.35429129,-4.9076984901388885,Ba4TiAs4
mp-769284,2.1791,-3.4055593889687503,8.287759262260446,0.0,-38.22861304,-7.645722608,Dy2SeO2
mp-3042,7.2224,-3.451352867571112,2.6060233781251347,0.0,-47.22966516,-5.247740573333334,K2SiF6
mp-675506,0.3586999999999998,-2.267169034420733,7.665333993409164,0.08058861103658632,-296.82929287,-7.239738850487805,Nb6(Pb2O5)5
mp-6064,2.6622000000000003,-2.6359844350757573,6.235091955401955,0.0,-134.41213797,-6.109642635,Sr3MgPtO6
mp-9804,4.2582,-2.588273451050001,4.007569285259656,0.0,-151.00614956,-7.550307478000001,KHo(CO3)2
mp-767342,,,,,,,
mp-769028,4.1105,-2.7264822472321435,3.908287116316654,0.009697986785706549,-201.81982363,-7.207850843928571,Si3Sb2O9
mp-772920,0.7633999999999999,-2.4533125292401956,2.473958121152519,0.07025775699999848,-409.94983914,-6.028674105,Li8Ti2O7
mp-868361,,,,,,,
mp-31531,,,,,,,
mp-31935,,,,,,,
mp-8892,4.0149,-2.9779454577377784,4.4594660527046095,0.0,-112.84191946,-4.701746644166667,LiInF4
mp-775847,,,,,,,
mp-772863,3.0053,-2.1110581359722227,3.284323418636636,0.03063788154762115,-208.34927935,-5.787479981944443,Na2Ge2O5
mp-768585,3.2358,-3.5312737385576916,8.547888802133642,0.004559948076931164,-248.54657706,-9.559483733076924,HoTa3O9
mp-32538,,,,,,,
mp-28773,2.4813,-1.3161975021022727,2.6023127782373443,0.0,-172.59277487,-3.9225630652272727,Na4Ga2S5
mp-557322,0.8599999999999994,-1.3719839647794116,7.280071151403245,0.16782292904412532,-86.64083708,-5.096519828235294,Bi4Te2Br2O9
mp-554645,2.9773,-2.1635481787294997,3.179583819357643,0.048644093163160214,-106.18294771,-5.309147385499999,K3Sb2N2O6F7
mp-25751,,,,,,,
mp-566047,,,,,,,
mp-18502,3.7232,-3.1042097947321423,3.9819032170419177,0.0,-207.70272824,-7.41795458,BaSi3SnO9
mp-30137,1.6189,-3.280068718125001,8.451323660475376,0.0,-511.99616909,-10.666586856041668,Gd3ReO8
mp-759234,0.9308,-2.6021262489640002,3.190962361754106,0.02671830525000729,-177.48215409,-4.43705385225,Li3CuF6
mp-19187,0.0,-2.7526301339448067,3.2494841438612037,0.03008428498738525,-158.05678739,-7.184399426818183,Na2ZrCo(P2O7)2
mp-32750,1.1641000000000004,-0.13901299874999973,5.675146689778504,0.01456183624999996,-23.60496693,-2.95062086625,CuI
mp-777974,,,,,,,
mp-18109,5.6663,-2.6757595809375,4.2061280006306285,0.0,-314.43095747,-6.5506449472916675,RbDy(SO4)2
mp-566470,,,,,,,
mp-744644,4.1512,-1.535550181416041,1.7793993208714989,0.0015469386666886464,-431.99835535,-4.799981726111112,Mg2MnH24(ClO2)6
mp-776906,,,,,,,
mp-556778,4.8353,-3.1654599440175004,4.57935355327447,0.0007550587499975947,-155.63700846,-4.863656514375,BaTeF6
mp-267,0.29529999999999923,-0.33752827833333393,8.405141357418236,0.0,-33.14715161,-5.524525268333334,Te2Ru
mp-764447,,,,,,,
mp-561127,1.4649,-1.4800466382511104,2.5809312165090272,0.001078912283949407,-344.50391569,-6.379702142407408,K2Ce(NO3)6
mp-555097,4.6909,-3.2323004846125003,4.172446822102601,0.0,-216.41987012,-6.76312094125,Tb3Si2Cl5O6
mp-626414,4.7659,-2.1015770878014286,2.336295894057671,0.03184463642856805,-163.65128734,-5.844688833571429,Al(HO)3
mp-23453,0.9487,-0.3497997794444443,6.5930087252061345,0.0,-160.88661542,-2.2345363252777783,Hg6Sb5Br7
mp-558592,2.6389,-1.6427196555357135,5.289826860558909,0.0,-470.02113073,-5.595489651547619,Sb8Br2O11
mp-585408,2.8056,-2.5240300617857145,3.1246315338628383,0.04037975987499731,-262.75960593,-6.56899014825,Li3Sn2(PO4)3
mp-28686,1.1223,-0.4030657152088887,2.1348848458084704,0.02323530885491909,-674.37311089,-5.352167546746032,Ni(H2N)2
mp-763167,,,,,,,
mp-776882,,,,,,,
mp-6783,5.5381,-2.365931507827381,2.412277730959337,0.00012034625000012512,-241.42990893,-5.7483311650000015,NaLiSO4
mp-555119,5.4929,-3.8796701011107415,5.376254872928962,0.0,-116.81628076,-6.489793375555554,SrTaF7
mp-17272,0.9521,-2.30873947975,4.651390829041612,0.01772913228571049,-153.92482206,-7.696241102999999,NbCuO3
mp-1019715,5.0846,-2.8507580165054267,2.3774915033052317,0.002366245694444657,-273.30193612,-7.591720447777778,CsLi(B3O5)2
mp-754936,5.171499999999999,-3.72947647675,7.607648618338344,0.04079807100000288,-79.47348292,-7.947348291999999,DyAlO3
mp-39010,0.7102000000000004,-2.4363281861904755,4.204331801981286,0.21012430357143155,-101.82790007,-7.273421433571428,MgCr2O4
mp-17586,4.0360999999999985,-1.9205227207500009,3.1872053349421723,0.0,-227.10827201,-5.67770680025,CdS2O7
mp-24708,4.6714,-1.5831779085880546,2.349377158410872,0.01597343319444366,-372.45147947,-5.172937214861111,ZnH8SO8
mp-743637,,,,,,,
mp-14389,5.2445,-2.7015731921377557,2.674454368943406,0.0,-972.77559697,-6.948397121214286,Na3AlP8O23
mp-540981,5.2761999999999984,-2.0823181992394333,3.0894482244149266,0.004962081071428592,-156.66807268,-5.59528831,CsHSO4
mp-754157,2.1588000000000003,-2.68632445475,5.6137155261278044,0.034633057749999814,-65.33175648,-6.533175647999999,AlInO3
mp-684638,1.6714000000000002,-1.4491664256250003,2.6328989377123846,0.005447446916666543,-201.24762711,-5.03119067775,Al2S3
mp-27373,3.4408000000000003,-2.013940143983333,3.9154213733860663,0.0,-50.83406609,-4.236172174166667,SnClF
mp-767365,3.9191,-2.451355848470982,2.8175774079140563,0.016353540156250013,-446.27780863,-6.97309075984375,SnP4O11
mp-556705,3.7779,-1.9056288690950005,2.4566221509890807,0.0,-165.51307688,-3.761660838181818,AsS(ClF2)3
mp-770003,,,,,,,
mp-3807,1.2611999999999997,-0.7668426570535714,4.851782898795287,0.046611588571426665,-55.497797899999995,-3.964128421428572,Al2CdSe4
mp-15728,3.3422,-2.5484254019557824,3.1309493223212854,0.0,-756.46581923,-6.754159100267858,MgAg(PO3)3
mp-9588,0.8141999999999996,-0.5232427888690481,2.0043939893729457,0.0,-66.94955434,-4.18434714625,LiP
mp-698669,3.5548,-2.682280217647058,4.9896653568341724,0.0,-256.05388233,-7.530996539117647,Nd2(MoO4)3
mp-556378,3.5228,-1.4719830394756248,5.232577872851888,0.0,-120.82029391,-5.0341789129166665,BiSeClO3
mp-770060,,,,,,,
mp-542791,1.7203999999999997,-2.0908090152133325,4.241729538561387,0.0008090233333266639,-48.05290168,-8.008816946666666,ZrNCl
mp-1666,1.6968000000000003,-2.2074069733035717,6.928728887323742,0.0,-190.57805859,-6.806359235357142,Th2S5
mp-13680,5.8868,-3.5226784538588887,4.357484084935183,0.09584510874999808,-152.96699226,-6.3736246775000005,BaBOF3
mp-764125,0.8540999999999999,-2.0312486306481565,2.8691316169354804,0.6035792737169174,-264.88293701,-6.30673659547619,Li4Mn2(PO4)3
mp-18440,0.7678999999999998,-0.4087491943749999,3.5959738008079447,0.0,-81.00813224,-3.375338843333333,Rb7NbAs4
mp-19643,,,,,,,
mp-14364,3.7302,-2.109227337191092,4.3048676234175804,0.0,-84.42943246,-5.27683952875,Cs2LiAsO4
mp-773363,0.9558,-2.135642939907012,4.99335306185194,0.09481506250000038,-213.64199526,-6.676312351875,Li4Mn3WO8
mp-763591,,,,,,,
mp-695383,5.270499999999998,-1.9111134850625,2.3824726356924844,0.023582729217999088,-137.53268222,-5.7305284258333336,K2HS2NO6
mp-753192,0.6380000000000003,-1.8157597654166668,9.036667899337706,0.0,-31.37236409,-4.4817662985714275,Yb4Sb2O
mp-721875,5.419,-1.9960533271382448,2.162272973921596,0.037205217434212116,-226.33294855,-5.956130225,CaB2(HO)8
mp-14243,0.4990000000000001,-1.5296814597500004,7.068363794506433,0.0,-93.26543336,-4.663271668,Cd3TeO6
mp-624234,2.169,-1.5764741120312509,8.378154694927225,0.0006917037499869494,-88.81720054,-5.55107503375,TePb2O5
mp-764207,,,,,,,
mp-774379,0.8695999999999999,-2.70410075120875,3.6103284975380268,0.23813991353645925,-187.39503768,-5.8560949275,Cr4OF11
mp-774019,,,,,,,
mp-561434,1.6563,-0.8818636513333331,4.408527699618522,0.0,-103.73683774,-3.457894591333333,Rb2Sn2Hg3S8
mp-720643,4.9329,-2.9307368951799995,2.683848537527016,0.0,-514.91225045,-7.151559034027778,K2ZrSi3(HO5)2
mp-6899,6.1046,-3.3323649474701784,2.9538739363228856,0.0062889792187537106,-224.8571722,-7.02678663125,CaBePO4F
mp-998560,2.1462,-1.275596429956,3.041985535145114,0.0200768340000006,-16.88351379,-3.3767027579999995,InSnCl3
mp-34730,1.6195000000000004,-1.826304405,5.112124309232759,0.06399486214285678,-84.99769479,-6.071263913571428,Zn(FeO2)2
mp-771869,,,,,,,
mp-626229,5.2569,-1.5879451253854997,1.928486411788464,0.02919422749999967,-214.15886044,-5.353971511,H4SO5
mp-761385,,,,,,,
mp-766824,,,,,,,
mp-765754,,,,,,,
mp-28796,1.2743000000000002,-2.352642425555556,6.802027217818665,0.0,-84.25012948,-5.6166752986666655,Sr5(AuO4)2
mp-25656,,,,,,,
mp-565702,,,,,,,
mp-540878,0.21060000000000034,-3.104376564732142,7.794740537371979,0.006697311428567332,-242.73867362,-8.669238343571427,La3Re2O9
mp-1019564,0.2952999999999997,-1.0763461634722222,2.993319509058192,0.08138985111111108,-35.16458061,-3.9071756233333335,Ca6Ge2O
mp-19023,2.3211,-2.575018986944445,5.886917371319044,0.0,-83.22483708,-6.93540309,YbCrO4
mp-764806,,,,,,,
mp-762289,3.2561,-2.566519472344322,3.9917877814295073,0.02411864982905776,-90.58162079,-6.967816983846153,Li2P2WO8
mp-765757,,,,,,,
mp-553884,4.262499999999998,-2.7477574559375,4.582474122134738,0.0,-171.57317043,-5.3616615759375,Ba5Si(Br3O2)2
mp-558642,3.9997,-2.7407110371030003,4.448879680880439,0.0,-211.44207939,-5.28605198475,Sr3Bi(ClO)3
mp-776424,1.1706999999999996,-2.3657526351968867,2.938349772047945,0.08462483419230526,-319.73435918,-6.148737676538461,Na2LiCuP2O7
mp-763837,,,,,,,
mp-18814,3.4730000000000003,-2.025636317873034,3.5592329402564347,0.0,-79.14560827,-7.914560827000001,MnCO3
mp-555322,0.6426999999999996,-3.15715476222125,4.925401366517043,0.0,-266.03765625,-8.3136767578125,Eu2SiCl2O3
mp-763431,0.5714000000000001,-2.505326383174467,3.7868159606015266,0.08563622428571449,-94.22752089,-6.730537206428571,LiMn5O3F5
mp-1019566,2.4818,-2.495951174239131,4.385940410967393,0.02298791096377251,-147.19160053,-6.399634805652172,Ca3ZnGe5O14
mp-761485,,,,,,,
mp-762431,,,,,,,
mp-773449,,,,,,,
mp-560815,5.4968,-3.101274381798942,1.3541047980910248,0.02971336379629541,-805.48505743,-7.4581949762037025,AlPO4
mp-772272,2.5043,-1.820068118371212,2.6731047504748617,0.08714653071969725,-275.35339292,-6.258031657272728,Li2Cr2O7
mp-961695,0.6381999999999994,-0.7361100899999998,7.5766318881845365,0.3262668549999912,-17.395956100000003,-5.798652033333332,LaCoTe
mp-545482,1.0476,-1.0427502812187501,4.702190987510382,0.0,-53.24629246,-5.324629246000001,PdSeO3
mp-850764,,,,,,,
mp-560708,5.632000000000001,-3.2683201316666675,1.770509640526634,0.009677537499998223,-664.15109565,-7.9065606625,SiO2
mp-761599,,,,,,,
mp-775694,,,,,,,
mp-778250,3.7593,-2.686077889964,2.918816972207872,0.3384389640000034,-187.38858121,-4.68471453025,Li3FeF6
mp-770733,3.0555,-2.276868814791668,2.9589944228551928,0.3044043424999998,-193.98932388,-6.06216637125,Li2AlFeO4
mp-555770,5.0051,-1.5811492515895451,2.5252726226355446,0.005184599431808935,-238.96098566,-5.4309314922727285,RbH4SNO4
mp-22052,1.1259,-0.9856883224999996,4.523610525704208,0.014291703571432281,-55.10921158,-3.9363722557142857,Zn(InS2)2
mp-561012,0.5402,-2.6394071055494503,3.8847505879858364,0.00024386423076894204,-351.14887892,-6.752863056153847,Sr3Cu3(PO4)4
mp-613820,,,,,,,
mp-706912,5.0668,-1.9056187825625,2.3463983460429305,0.029077431717998262,-137.40080936,-5.7250337233333335,K2HS2NO6
mp-29476,0.5031999999999996,-0.12885678064732176,6.193709153943781,0.03441456857142988,-111.26540597,-3.9737644989285714,Cu3SbSe3
mp-774421,1.6989999999999998,-2.3496020982945733,3.208106010936206,0.061354249331404986,-307.98113149,-7.162351895116278,Li3Fe8(BO3)8
mp-4081,1.6313000000000004,-0.5145681049218753,6.12470972152575,0.0,-42.25558804,-5.281948505,TaCu3Se4
mp-773785,2.6294,-1.8041464251428567,3.092241167457214,0.0,-139.9031427,-4.9965408107142855,K2TeO4
mp-680114,2.3553,-0.5901936769696969,5.0599234127181605,0.0018126613636364477,-62.97282135,-1.9082673136363637,CdI2
mp-13981,4.821199999999998,-2.6868779925642854,2.28968215935431,0.012598599000000377,-130.78028471,-6.5390142355,KPO3
mp-15557,0.5720000000000001,-0.4447087831724136,3.863183870193926,0.0,-35.97974568,-3.597974568,Cs2As3
mp-558285,1.9028,-1.97339578925,7.515730637308581,0.0020039264999995865,-118.07392661,-5.9036963305,GaBiO3
mp-12364,0.4240999999999997,-0.7417700436718748,5.299959427146802,0.0,-68.05497082,-4.25343567625,BaCu2SnSe4
mp-6163,5.9678,-3.080484394800207,4.378038216914852,0.0,-90.91852484,-4.545926242,Cs2NaGaF6
mp-555954,1.8455,-1.2367548096428571,4.704334022888838,0.0,-57.52827593,-4.109162566428571,BaSnHgS4
mp-715561,,,,,,,
mp-566725,,,,,,,
mp-706279,2.0109000000000004,-2.552164844160401,2.5328062437345547,0.30280958850146344,-535.1232745,-7.041095717105263,Li2ZrFe(PO4)3