id,band_gap,formation_energy_per_atom,density,e_above_hull,energy,energy_per_atom,pretty_formula
mp-557894,5.718299999999998,-3.2621550977083325,1.6450147511959357,0.015842571458332344,-758.43798034,-7.900395628541666,SiO2
mp-31135,0.8865999999999996,0.0362813516666665,4.3896632748350415,0.036281351666667135,-254.42246678,-4.711527162592593,Si19Te8
mp-771853,0.7108000000000001,-2.262684095493563,4.476250198908012,0.062072292514885774,-187.80038724,-7.8250161349999985,Mn3Nb2Cr3O16
mp-28556,0.7792000000000001,-1.462957413869047,3.2385184471454904,0.0,-372.16288786,-4.430510569761905,Na3CuO3
mp-764089,,,,,,,
mp-754846,2.0783,-3.82329952943182,6.604769430471366,0.047855475681826576,-186.35683567,-8.470765257727273,Ce2Nd2O7
mp-36165,1.4874,-1.6453357287499997,3.3635627970430613,0.0,-188.4275669,-4.096251454347827,Na10Zn4O9
mp-771844,,,,,,,
mp-775492,0.9618000000000002,-2.4250173592106075,3.8201632571052,0.024930674285720045,-405.66134926,-7.243952665357143,Li2MnV3O8
mp-560404,3.4371,-1.5620964076376782,4.480576763384144,0.0,-149.61867439,-5.343524085357143,InHSeO4
mp-626014,0.9675,-1.0278029737999994,3.1904549696652835,0.06395946395833185,-222.12128348,-4.627526739166666,H5IO6
mp-776686,2.3929,-2.403488025369048,3.2720449129704634,0.05195705370832826,-264.50035642,-6.6125089105,Li5Fe3Ni2(PO4)6
mp-767145,0.0,-2.8041265157471256,3.794843108964784,0.027491805517245282,-199.02726464,-6.863009125517241,Mg8V5O16
mp-540477,3.8850000000000007,-2.6142864643807493,2.739330250277139,0.04884119228947359,-133.57127392,-7.030067048421053,Li2Mn(PO3)4
mp-540789,2.3951,-0.6651560833333333,5.460888323850439,0.0032789658333332032,-17.51215186,-2.9186919766666666,PbI2
mp-31922,,,,,,,
mp-6812,4.9459,-3.0525829327244898,3.947426448799718,0.0,-187.17359217,-6.68477114892857,KBaPO4
mp-743538,4.2044,-1.6097672920154829,1.6055170486039725,0.0,-633.32293219,-5.107443001532258,CrH18(O3F)3
mp-755138,2.6533,-2.88374965725,7.255663314637981,0.014706866499998306,-138.70228653,-6.935114326500001,NdInO3
mp-6596,5.0452,-3.1685407275818447,2.626728276863948,0.0,-229.32964309,-7.1665513465625,MgAlPO5
mp-764431,,,,,,,
mp-772603,,,,,,,
mp-645301,2.6619,-2.378149175977679,3.800561055100708,0.0620982587152783,-429.58342154,-6.7122409615625,K2CoP2WO10
mp-9006,1.1317000000000004,-2.621176536476,8.551789379742598,0.0,-34.33857051,-6.867714101999999,Ho2CF2
mp-18677,4.3758,-3.4630830321666664,3.7421898247719794,0.0,-341.41103059,-8.53527576475,PrSc3(BO3)4
mp-771071,,,,,,,
mp-752463,0.9941000000000002,-1.9275637945433344,4.9423258221952,0.06176837833332094,-56.16426816,-9.36071136,NbNO
mp-622491,2.0074000000000005,-1.3657828269827588,7.3803405089574685,0.0,-280.29916012,-4.83274414,Pb13(Br3O5)2
mp-776141,0.2018000000000004,-1.895512446488095,5.0456410136114105,0.09260237910715753,-168.70521288,-6.0251861742857145,Li4Fe3Co2Sb3O16
mp-624397,2.054499999999999,-0.20257863840908966,3.1719941221520718,0.003109084590909639,-165.60849527,-7.527658875909092,SiC
mp-542782,3.0245,-0.8080646080794113,1.3911829380309642,0.08789071724264286,-415.71885623,-6.113512591617647,H8C3(NO)3
mp-22983,5.557,-2.0429953257844446,1.829212243080588,0.0,-91.71149818,-3.821312424166667,LiAlCl4
mp-697263,4.1987000000000005,-2.3541392415724243,2.7686468118410272,0.0012501581818167296,-103.42280433,-4.701036560454545,LiAsH2OF6
mp-24126,3.8859,-2.1621450040841377,3.0062867066932712,0.0025225086206885905,-660.3465044,-5.692642279310345,Sr3Al2(HO)12
mp-850876,2.9193,-2.701062011464,2.8453136039369125,0.030134224000000213,-117.65192839,-5.8825964195000005,VOF3
mp-704637,1.8929,-2.9636419495923914,4.5291414457755526,0.005795995263975229,-406.2572771,-8.831679936956524,Nb12WO33
mp-17770,5.2973,-2.9325290848453758,3.270366011953844,0.0,-262.12590823,-7.281275228611111,CsPr(PO3)4
mp-17823,1.8718,-0.7754206528906247,4.219313350612379,0.0,-148.5195196,-4.6412349875,Tl3B3S10
mp-777078,,,,,,,
mp-761603,,,,,,,
mp-773770,,,,,,,
mp-6964,3.8925,-3.142832760625,6.2685362006696606,0.0,-54.01850217,-6.75231277125,NaTbO2
mp-557090,1.4016,-1.7751219391067858,6.469429873225575,0.0,-414.70883026,-3.7027574130357146,Bi2Au5F21
mp-761592,0.4245000000000001,-1.7558161093749998,4.397238737098038,0.22096530020833335,-68.97746656,-5.748122213333333,Li3Fe2CoO6
mp-12807,3.7538,-2.91833573575,2.687499382988172,0.003956118906249806,-100.08259463,-6.255162164375,KAlO2
mp-568137,4.3849,-2.277626788606648,3.1996700825424265,0.022697814166666497,-41.98847725,-3.4990397708333334,Cs3Mg2Cl7
mp-866141,0.4027999999999992,-0.693523826249999,6.7581276538375015,0.0,-33.03113288,-8.25778322,TiFe2Si
mp-762532,,,,,,,
mp-23165,0.9388,-0.25732649687500003,6.014769232873544,0.0,-144.13191981,-3.002748329375,PtBr3
mp-780443,,,,,,,
mp-23321,4.5642999999999985,-2.959031975679697,3.314941183260357,0.0,-102.15209615,-4.643277097727274,Sr4Cl6O
mp-3079,3.5465,-3.4396876752343752,7.372524479622549,0.0,-302.33578963,-9.4479934259375,CaTa4O11
mp-5012,5.0765,-2.8908639211805562,2.45838314186926,0.0,-78.64683259,-6.553902715833334,Li2SiO3
mp-557852,,,,,,,
mp-766904,,,,,,,
mp-763240,1.2663,-2.267387383095238,2.9756987012511518,0.16962939142857625,-90.84200972,-6.488714979999999,LiCoSiO4
mp-705854,5.119,-1.9567307700664551,1.9491734442622883,0.0537174636110862,-649.47550215,-6.013662056944446,CaP3H10NO12
mp-762488,,,,,,,
mp-6217,4.2342,-3.4812131521666663,3.70750406810385,0.0,-342.44645131,-8.56116128275,LaSc3(BO3)4
mp-23049,1.3655,-1.3031071929870344,2.625033975061069,0.4882974888333331,-82.19677725,-4.1098388625,KMnCl3
mp-600078,5.6142,-3.2543967256481467,1.629928604271647,0.02360094351851849,-426.20241185,-7.892637256481482,SiO2
mp-868331,,,,,,,
mp-4511,3.079699999999999,-3.5967510571249997,5.7001341534308585,0.0,-39.8200903,-7.964018059999999,La2SO2
mp-555443,5.4844,-2.0734220757078576,2.1587009819801386,0.005295202625005935,-490.01093239,-6.125136654875,PNF2
mp-23948,3.0927,-0.2743306068259257,2.362932451460636,0.007766775277778137,-92.82462761,-2.5784618780555557,Rb3MgH5
mp-17009,2.3646,-2.397985737589285,5.997628490247121,0.0,-167.65260779,-5.987593135357143,Ba3Te2O9
mp-18216,4.572,-3.4381974097499994,3.576201409578134,0.005533560555552874,-223.94403726,-7.464801241999999,BaCa2(SiO3)3
mp-565549,,,,,,,
mp-27501,4.6925,-2.5608917983802297,3.5976964543680334,0.0,-39.77579504,-4.4195327822222215,Cs2ThCl6
mp-31415,3.4544999999999995,-3.836145278977274,7.036016093705814,0.0,-197.16610989,-8.962095904090909,La3TaO7
mp-761394,,,,,,,
mp-19188,1.586,-2.43888814278695,5.093168024972582,0.0,-172.77898947,-6.645345748846153,Ba3Mn2O8
mp-600059,5.7111,-3.2674490542647057,1.9075560131430995,0.010548614901960462,-403.19016884,-7.905689585098039,SiO2
mp-850917,3.6639,-2.2921930125340144,3.55088922061444,0.26500214392857124,-184.34607487,-6.583788388214287,LiFePO4
mp-28274,4.5144,-3.592591801722353,5.328896261150804,0.0,-178.76188437,-5.257702481470588,Ba3In2F12
mp-756194,5.064,-3.327461721283333,4.545895352318417,0.08762555432999798,-204.84810249999998,-8.1939241,Tm4(B2O5)3
mp-17691,0.9982999999999996,-0.4770008091964288,4.988585891971801,0.01921451357142789,-120.73837944,-4.31208498,Cu3SbS3
mp-998298,3.1627,-2.777422205300207,4.352363711605835,0.026471158999999744,-23.03645878,-4.607291756,CsSnF3
mp-776283,1.4043,-1.8442824657291668,3.733720354869778,0.3171689576562642,-96.91379304,-6.057112065,Li4NbCo3O8
mp-626225,3.5137,-1.4490189966822224,1.6794421958674914,0.044829005509259716,-270.83083383,-5.0153858116666665,Ca(H8O5)2
mp-554116,3.2598,-2.9017803673277784,6.693404098197906,0.0013299255555550007,-88.39970089,-4.911094493888889,BaPb2BrF5
mp-6076,4.3068,-3.389031126805554,3.4193350141220917,0.0,-136.43124494,-7.579513607777778,Ca4LaB3O10
mp-770613,,,,,,,
mp-29531,1.4289999999999998,-0.9328275092840038,5.627651324430599,0.0,-153.26019372,-4.257227603333333,CsBi3S5
mp-777092,,,,,,,
mp-761991,,,,,,,
mp-762869,,,,,,,
mp-850403,3.3735,-2.0085676721228096,2.535293980888015,0.19808052275000154,-243.40793257,-6.0851983142499995,LiFePH2O5
mp-720593,4.9628,-2.3212031565659426,2.0795117951631106,0.010495598898741855,-609.24030113,-6.622177186195652,Na2B5H5O11
mp-765445,,,,,,,
mp-761340,,,,,,,
mp-555121,3.5807,-2.4639819969696832,2.5138874517423884,0.05228359202381405,-414.53110875,-4.9348941517857146,MgAs2S2(OF3)4
mp-757173,3.007,-1.7859963561492318,4.813880680904386,0.0799405709134664,-150.00631794,-5.769473766923077,Sb5O7F
mp-6499,4.4008,-2.9665062302083336,4.266235172177152,0.0,-164.17327245,-6.8405530187500005,BaLiBO3
mp-757084,2.7857000000000003,-1.7320073401785712,3.9582079652838535,0.055020370357143016,-127.72659836,-4.561664227142857,Rb3SbO3
mp-767460,,,,,,,
mp-755941,3.3946,-3.7897450826136367,7.897582801794454,0.013490220454546177,-194.83535780000003,-8.856152627272726,Sm3TaO7
mp-566620,,,,,,,
mp-23261,2.6663,-0.7673884626785714,4.717369732266473,0.0,-118.59225885,-4.235437816071428,I2O5
mp-18195,4.5717,-3.8497656404687497,7.6744647262834365,0.023615646875008167,-265.96697665,-8.3114680203125,Lu2SiO5
mp-773420,,,,,,,
mp-13944,2.9373,-0.9753059153766662,2.3342112141043065,0.0,-249.83299406,-5.204854042916667,Li3AlN2
mp-560833,2.8160000000000003,-2.065655462663,6.889221356234124,0.0,-509.34929657,-6.366866207125,B3Pb6ClO10
mp-764221,,,,,,,
mp-721463,4.7602,-2.362414487817913,2.163371870860097,0.05274784346154071,-319.83155825,-6.150606889423077,K2P2H2O7
mp-762644,3.0831,-2.5874282564285718,2.5089536680973454,0.03830551130953541,-288.97962131,-6.880467174047619,LiFeSiO4
mp-770734,3.0162,-2.402070991153846,3.4912273077350338,0.06532540692307798,-317.19980202,-6.099996192692307,Mg3(AsO4)2
mp-638406,,,,,,,
mp-6109,2.9576,-3.4868243226562505,3.4164640459636857,0.0,-257.76331262,-8.055103519375,CaTiSiO5
mp-558891,5.65,-3.2663699688888888,2.241363292169233,0.011627700277776043,-284.56597799,-7.904610499722222,SiO2
mp-35663,1.065,-0.655753076666666,4.882913115744482,0.07167533857143082,-24.35632397,-3.4794748528571424,Sr(InTe2)2
mp-771780,0.9998000000000004,-1.8666289586607152,4.680114564242713,0.0677958051339207,-362.10468665,-6.4661551187500015,Li3Zn(Fe5O8)4
mp-556601,2.8421000000000003,-2.1036728411904755,7.256263305042367,0.0,-183.94707334,-6.56953833357143,BiBPbO4
mp-769211,0.9667,-2.5612724389772734,8.90152092259743,0.0,-149.17513282,-6.780687855454545,Tb2Pb2O7
mp-853190,,,,,,,
mp-1002063,1.8354,-0.7575158587499994,3.391010466791008,0.06529731000000005,-26.42164458,-4.40360743,SnS2
mp-769271,4.1974,-3.4361711748611112,5.849591440790231,0.0,-240.45407283,-8.015135761,Sr4Ta2O9
mp-775681,,,,,,,
mp-695965,5.0044,-2.169942654163928,2.3680111337946967,0.03964025677082805,-284.61973392,-5.92957779,RbNa2P3(HO2)6
mp-6179,5.3235,-2.4091459839702374,2.2732925048597727,0.00019359214285596948,-80.67799086,-5.762713632857142,KLiSO4
mp-761995,,,,,,,
mp-31564,,,,,,,
mp-672289,2.0646,-0.2632817577885709,5.118468463147488,0.0,-190.02158378,-6.786485135,Ge3N4
mp-34210,3.0308,-2.90255672,4.444218776627293,0.12729318857144012,-92.10234236,-6.57873874,Al2ZnO4
mp-757466,3.785200000000001,-2.6518253610576923,4.026696383002002,0.058373878397433465,-507.92012535,-6.5117964788461515,Li3Si2BiO7
mp-767640,,,,,,,
mp-626378,3.5559,-1.6042032921119995,3.4376468473708703,0.0,-234.9251463,-5.8731286575,As3HO6
mp-22756,1.2094999999999998,-1.5982343907916663,4.726493678909918,0.00464561166666666,-56.51958039,-4.7099650325,K2PbO3
mp-777081,,,,,,,
mp-775485,2.3797,-2.0914589824837657,7.406226778568366,0.0,-418.78945254,-6.345294735454545,Bi3PO7
mp-616185,4.4704,-1.9986940765057144,2.7914750602368152,0.0063918216666669645,-88.90716477,-3.1752558846428567,Rb2ZnCl4
mp-866482,1.2115,-0.03773570271551696,3.48138224990076,0.023302173437500073,-102.30823092,-3.19713221625,CsSi
mp-764922,,,,,,,
mp-8921,2.9917,-0.6296253057875462,4.427166251864857,0.0,-149.48856444,-6.499502801739132,Cd4P6SN12
mp-568909,4.9977,-2.291760321747915,2.7796646849470728,0.0007023085714279452,-97.78170728,-3.492203831428572,Cs2MgCl4
mp-769980,,,,,,,
mp-560010,3.6746,-2.530876618878206,3.563773622159522,0.0,-335.98833438,-6.4613141226923085,Rb2Ga2B2O7
mp-769485,0.5291999999999999,-2.2619455606613843,2.7339589787728524,0.0543235372916282,-326.43345208,-6.800696918333332,Na2MnPCO7
mp-775574,,,,,,,
mp-540161,,,,,,,
mp-774303,2.6116,-2.048582898765997,3.1894308402500453,0.4623717702381027,-489.6828448,-6.801150622222222,Li6Mn5Fe(BO3)6
mp-23054,1.0679,-1.5960276737500003,6.114542057721617,0.0,-51.83154832,-5.1831548320000005,NaBiO3
mp-699284,2.6319999999999997,-0.6192757957708332,1.5032399358396713,0.002505109618055279,-139.89726191,-4.3717894346875,Li2HN
mp-850471,,,,,,,
mp-762517,1.1269000000000005,-2.277425345952381,4.342261159412562,0.1929534324107287,-186.5149001,-6.661246432142858,Li4Ti3Fe3(TeO8)2
mp-558415,2.2349,-1.1064672298475278,2.2521132410601825,0.0,-227.80791316,-4.380921406923076,K3CuP2S7
mp-19582,,,,,,,
mp-27385,2.3193,-1.5362561668399999,3.215310006674597,0.0,-35.40998555,-2.950832129166667,KTlCl4
mp-758004,2.0838,-2.975667263715517,3.9567425453866516,0.0036142307184121596,-482.00465335,-8.310425057758621,K3Nb7O19
mp-15437,5.1106,-2.7044777485230656,2.469283521116374,0.0,-452.89601398,-7.0765002184375,MgP4O11
mp-12263,2.0692,-2.036456893571111,5.663814579818449,0.003513542916666612,-46.16749258,-3.8472910483333336,LiAuF4
mp-850370,1.6435,-2.4210802071616793,2.748404914980925,0.07049559007917505,-389.4955514,-6.7154405413793095,Li6Mn2B4SO16
mp-1009639,1.5734999999999997,-1.3564458636899994,5.969066669378321,0.11656502000000035,-15.44626306,-7.72313153,PrN
mp-642844,4.7633,-1.7211704021849996,3.5019068225723253,0.0,-99.40656221,-4.970328110500001,BaH5BrO3
mp-693753,4.8172000000000015,-3.2205329936956213,3.1395275852530284,0.0,-618.51635906,-6.723003902826087,BaNa5Ca7P6(O8F)3
mp-771295,2.9162,-2.011045983852528,3.503352100574688,0.5130891352083138,-326.97953699,-6.812073687291666,LiMnBO3
mp-1018721,4.6693,-3.975231355833333,10.362278041565107,0.05477812916666558,-60.74841955,-10.124736591666666,HfO2
mp-770034,,,,,,,
mp-19602,,,,,,,
mp-757587,2.6543,-2.3543538806250006,8.623621854045734,0.037531224374996335,-523.70928171,-6.546366021375,Dy5Bi11O24
mp-743779,,,,,,,
mp-1019747,4.1202000000000005,-3.216704952138889,2.893205670234121,0.0049489250405097,-249.69340378,-6.9359278827777775,K2Ca3Si3O10
mp-770210,3.6651,-3.718867521309524,4.689433733594754,0.07171601803570482,-231.78538629,-8.278049510357143,CaY2O4
mp-555173,2.2611,-2.83296425875,5.331743008557902,0.0006883392857321978,-123.15451397,-8.796750997857142,UCO5
mp-772349,,,,,,,
mp-677042,4.448600000000001,-3.1432481836236934,3.179102119482034,0.004965202225617915,-306.67574947,-7.479896328536586,Na7Zr4Si5PO24
mp-3647,2.9608,-1.3575781107291665,2.8347266023122746,0.0,-69.2532198,-4.3283262375,LiGaS2
mp-689979,1.3134,-2.291605965232684,2.6194177160656853,0.26865860136363473,-146.79823103,-6.672646865000001,LiFeP2O7
mp-695214,2.3787,-3.2912163756111115,5.965211407958789,0.055483414791668295,-461.08931306,-7.684821884333331,Ba9La3Mg5Nb7O36
mp-765476,4.0053,-3.990774407333333,5.5286208545806845,0.001214359984384572,-359.33314469,-8.983328617249997,Y13Ho3O24
mp-7841,1.8799,-1.093342947767857,4.621271463531903,0.0,-59.22439443,-4.230313887857142,Ba(GaSe2)2
mp-17470,0.7570000000000001,-0.825247270555556,5.1198247259502425,0.0,-159.2110405,-4.4225289027777785,Ba3(SnAs2)2
mp-761778,,,,,,,
mp-560794,2.7981,-2.7533642176934516,4.6735396092451955,0.0,-700.66045619,-7.2985464186458335,BaNbTePO8
mp-772488,,,,,,,
mp-722988,3.5409,-1.5229253746895584,1.9800179587185296,0.0336897668499212,-619.02738261,-5.627521660090909,TeP4H26(NO5)4
mp-762770,,,,,,,
mp-7603,4.3715,-3.5509541894970367,2.886520546058677,0.0,-104.38957411,-5.7994207838888885,Li2TiF6
mp-3771,3.4987000000000004,-3.3789166224166665,3.7800065411375283,0.0,-78.24705655,-7.824705655,MgTiO3
mp-566856,,,,,,,
mp-744001,2.3057,-1.1003025265631428,1.803157788257734,0.20566920385713328,-409.24574465,-5.846367780714287,Fe2H13C6NCl2O11
mp-558804,4.5981,-2.6566716063900864,3.3576429132529833,0.0,-348.60321394,-7.262566957083332,CsGeB3O7
mp-778734,1.6764,-2.3907680775357147,3.1420967092184253,0.184198692638879,-262.66113274,-6.5665283185000005,Li6Fe3Sn(PO4)6
mp-505088,0.4868999999999999,-0.33866371833333275,5.529209872823708,0.0,-209.84400108,-4.3717500225,NbTe4I
mp-763593,,,,,,,
mp-973793,1.7533,-0.680973843221553,2.1449645759219704,0.0,-84.32590191,-3.832995541363637,Li8SeN2
mp-558063,0.6823000000000001,-0.8719390919375001,5.2888587893236085,0.0,-67.69982116,-4.2312388225,KCu(BiS2)2
mp-554610,5.7573,-4.172225458077857,3.9479906317006046,0.0,-191.82701658,-6.850964877857143,PrZr2F11
mp-21228,1.1989,-2.151118093800104,5.546135859213445,0.0003911293749991884,-38.61924382,-4.8274054775,SrCuSeF
mp-766540,2.3649,-1.62533004212963,1.94545209604366,0.0,-176.2026964,-4.8945193444444435,Li4TiS4
mp-764102,0.9314999999999998,-2.398110453333333,2.910624191355803,0.23036298399999303,-195.966249,-6.5322083,Li3Fe2(SiO4)2
mp-707958,4.9035,-1.16523731890102,1.5593950555820304,0.014282100662203591,-261.06531049,-6.215840725952381,PH9C2N4O5
mp-782657,0.4851000000000001,-2.34678508842428,3.5084325557711296,0.08645142798610372,-254.98947659,-7.083041016388888,Mn3VTe2(PO4)6
mp-28874,0.9394999999999998,-0.13905678220238055,6.4264659848882815,0.002640404464283819,-77.27353143,-3.21973047625,Hg2P3Br
mp-761442,,,,,,,
mp-8348,4.2878,-2.6507291665175003,4.9900101058780635,0.0,-36.21978664,-4.52747333,TlSbF6
mp-12525,1.6835,-2.74866910725,6.125298708664707,0.010799008999995864,-70.69309643,-7.069309643,Sr2LiReO6
mp-780866,2.0062,-2.3877599106597223,2.9106373507673875,0.2677721256249983,-330.40430181,-6.883422954375,LiFe2Si2O7
mp-561472,1.4468,-1.9018216247873476,6.2547254140376785,0.0,-133.96336726,-4.784405973571428,Hg2PO3F
mp-698695,2.8711,-2.3668812333265303,3.4642674994365734,0.14466032228571454,-238.94658557,-6.827045302,CaFe2Sb2(PO4)6
mp-556708,2.2712,-2.9253867924977683,3.649961784269228,0.0014423591406629301,-977.20140302,-7.63438596109375,KUP3O11
mp-19592,,,,,,,
mp-559951,2.3040000000000003,-2.8391594159226186,8.384334511420771,0.010605159999984792,-222.27417923,-7.9383635439285705,SrTa2Bi2O9
mp-675430,1.5192,-1.3701476451081729,6.703010592954444,0.09832714653846696,-133.6381755,-5.139929826923076,Sm4Ag2Se7
mp-723109,3.3192,-1.2548136206264857,3.202186727589495,0.0,-712.16737914,-4.8119417509459455,BeH14(I2O9)2
mp-569815,0.4821000000000009,-0.5450152008333333,6.121951384210062,0.0,-174.04972818,-7.2520720075,Si2Ru
mp-674328,1.3922,-0.9999800260714282,4.168547641077612,0.0,-55.30929543,-3.950663959285714,Zn(InS2)2
mp-775439,0.845,-2.4620942853103736,2.6462691503245424,1.8181664319933395,-398.33007169999996,-7.113036994642857,Li2Cr3P5O18
mp-765315,,,,,,,
mp-29898,1.1304999999999996,-0.46479181993055607,9.177070541524873,0.0,-64.84185596,-3.6023253311111114,Tl2Au4S3
mp-650619,0.6092999999999997,-0.6181031009962775,6.111686054228108,0.003637295227272297,-85.44032773,-3.8836512604545463,Cs3Bi7Se12
mp-781712,2.4072,-1.7031522509999997,3.795321363566791,0.04017231024999823,-94.49533273,-4.7247666365,Na2SnO2
mp-773980,1.1818,-1.1663579325066669,3.933552269818069,0.032919540999999615,-95.95945951,-3.1986486503333333,Bi3(TeCl5)2
mp-12442,1.9913,-1.8451584375175,4.374116631727785,0.0,-27.66884879,-3.45860609875,KAuF6
mp-554737,1.7788000000000002,-1.7997605576261038,5.324509538723821,0.0,-70.76924393,-3.5384621965000003,CsAu2F7
mp-18351,0.9348,-0.7940954821428576,3.7985077947096753,0.0,-172.41387922,-4.789274422777779,Sr3(GeP2)2
mp-760489,5.0658,-1.0673366700171427,1.5378841461829529,0.01750173014042744,-103.93775131,-5.1968875655,PH6NO2
mp-568450,3.5009999999999994,-0.4187631263952381,2.673731111030012,0.0,-98.26032909999999,-3.5092974678571434,SrAlH5
mp-558992,0.4081999999999999,-1.6532591682352935,7.260623859659088,0.0,-94.78845777,-5.575791633529412,In7GeIrO8
mp-552488,1.5467999999999993,-2.1999527096484384,6.758637920221507,0.0,-51.15320312,-6.39415039,LaCuSeO
mp-567771,3.2694,-1.3275025639359996,3.7821179966931977,0.0,-117.99163072,-7.866108714666669,Ba(Si3N4)2
mp-570311,0.5377000000000003,-0.6799604471515153,3.3185794337324133,0.0,-227.5587026,-3.4478591303030304,K4Sr2SnAs4