id,band_gap,formation_energy_per_atom,density,e_above_hull,energy,energy_per_atom,pretty_formula
mp-762034,1.0697,-2.204172236,2.50650143,0.076733697,-96.20784293,-6.413856195,Li2Co2P2O9
mp-542493,0,-0.737963827,4.329090604,0,-256.754294,-6.756691947,Sc5(Co2Si5)2
mp-999076,0,-0.095316834,6.799539678,0.207611747,-24.70563686,-6.176409215,Ti2InNi
mp-623751,0,-0.240490269,8.467240493,0,-82.49044651,-5.155652907,Tb3Ni
mp-974451,4.0212,-3.226337483,2.482841053,0.0113339,-108.5485164,-6.030473133,K2Al2O3F2
mp-504731,0,-4.088161747,6.260242473,0,-25.39621677,-8.46540559,EuF2
mp-18865,0.0006,-1.688973081,3.224784314,0.048269165,-93.7821664,-5.210120356,K3(FeO2)2
mp-6892,4.5304,-2.29232294,2.499741536,0,-371.4108005,-6.403634492,Na6Mg2C4SO16
mp-18890,3.0854,-3.071388668,3.509617558,0.007247718,-149.3042757,-7.465213782,CaFe(SiO3)2
mp-31310,0,-0.66034791,5.882738119,0.00201089,-827.32791,-7.955076057,Zr3(Mn2Si3)2
mp-541677,1.7061,-1.875835773,5.299347013,0,-159.2408302,-4.976275942,Cd2AsO4F
mp-22274,0,-0.659034086,6.56167654,0,-39.75521712,-6.62586952,HoTiSi
mp-753748,2.2334,-1.210952499,2.430793798,0.056268746,-96.07104914,-4.002960381,Li3CuS2
mp-556737,1.1657,-3.01660801,5.30914797,0.005754885,-314.9090651,-7.497834883,Pr6Ti2S7O6
mp-764098,0,-1.426698696,4.959316634,0,-71.58623315,-5.113302368,Li2Ni3TeO8
mp-510128,2.4873,-2.633570743,5.599402584,0.040883517,-212.4541021,-7.587646502,U(HO2)2
mp-9037,2.2402,-2.12477632,4.363798185,0,-42.21402772,-5.276753465,CsPrS2
mp-5479,6.8786,-3.650130376,3.545332146,0.001001211,-32.34761844,-5.39126974,RbAlF4
mp-557347,3.435,-2.178943482,5.700884396,0,-253.562354,-6.037198905,Ca2As3Pb3ClO12
mp-9582,0.7959,-0.743761747,6.373593619,0,-18.61288894,-3.722577788,Yb(ZnP)2
mp-31354,0,-3.087952872,7.501498509,0,-178.2402465,-8.101829384,Pr3OsO7
mp-29806,0.5993,-0.786987409,4.794673454,0.011206515,-23.16616418,-2.574018242,Cs2PdI6
mp-638749,0.6621,-0.389921459,5.848388683,0,-81.89001671,-3.722273487,Te3(PdBr)4
mp-30759,0,-0.100015385,5.022910419,0.027572113,-7.88365328,-1.97091332,LiMg2Tl
mp-30615,0,-0.297688408,8.239779679,0.020901428,-65.31244797,-2.252153378,Er6Zn23
mp-762351,2.4512,-3.258789188,3.539896481,0.031668846,-218.5217332,-8.093397526,Li4Ti7O16
mp-442,0,-0.093281842,11.84527691,0,-33.7049206,-5.617486767,RhPb
mp-11457,0,-0.84953979,13.27764506,0,-19.00024531,-9.500122655,HfRh
mp-973307,0,-0.057897517,2.498697386,0.20372481,-13.01690165,-2.169483608,Mg5As
mp-32983,0,-1.522310357,4.901701502,0,-239.3599722,-7.47999913,Nb3S5
mp-864962,0,-0.26676346,5.921449874,0,-9.74262264,-2.43565566,CaAcZn2
mp-540540,1.7574,-2.241740944,4.892736146,0,-59.6390504,-5.96390504,PaBr3O
mp-17036,0,-0.939494123,7.250878857,0,-154.0591341,-6.419130589,Tb2Si3Rh
mp-30593,0,-0.121474934,8.744653696,0.003021574,-15.73556758,-3.933891895,ZnCu2Ni
mp-755236,0,-3.658114357,7.442030196,0.059647991,-173.780026,-8.6890013,HoTiO3
mp-18547,3.2576,-2.853316033,5.108913254,0,-227.6937171,-8.131918469,NaGdGeO4
mp-13245,0,-0.643977261,5.8807749,0.025663051,-117.5566868,-6.915099222,Tb(P3Ru)4
mp-6853,3.913,-3.102235904,4.471463529,0,-168.3262203,-7.318531317,Ca3TaGa3(SiO7)2
mp-35220,4.6277,-0.59947622,2.485571196,0.002012121,-53.90476053,-6.738095066,PHN2
mp-27409,0.4791,-0.917417427,4.231861543,0,-32.53784085,-3.253784085,RbNiBr3
mp-45,0,0.002248775,1.576582135,0.002248775,-2.00004602,-2.00004602,Ca
mp-39823,3.2507,-3.037861435,2.107936651,0,-334.9037669,-6.97716181,Na8Al6Si6CO27
mp-722902,2.7739,-1.399963248,1.512208409,0.028676586,-155.2756259,-5.545558067,LiH2NO3
mp-782641,0,-2.143663565,2.511422053,0.081489355,-375.9225296,-6.961528325,Na4V2P(CO4)4
mp-7899,0.9776,-2.163438352,6.593263728,0,-79.78364722,-4.986477951,BaCdO2
mp-753813,5.0529,-1.332384858,2.675570419,0.01333229,-83.71990323,-4.651105735,Ca(ClO3)2
mp-781738,0,-2.525865346,2.735024381,0.015365184,-387.7521657,-6.685382167,Na6V2B4SO16
mp-2378,0,-0.229511057,8.936518624,0.048469888,-61.74694651,-6.174694651,Th3Al2
mp-762897,1.2198,-2.666059876,2.729558384,0.039384303,-181.0056785,-6.961756865,Li2V(PO4)2
mp-743768,0,-2.882698033,6.416869098,0.010577095,-309.9778153,-7.749445383,BaLa3Mn4O12
mp-1016886,0,-2.241438067,3.791494378,0.54597695,-32.88797621,-6.577595242,MgVO3
mp-997019,0.0642,-1.01715423,7.721378225,0.033352405,-38.10318561,-4.762898201,AgPbO2
mp-849392,0.4047,-2.60234986,2.706223028,0.087527077,-442.8008945,-6.511777861,Li9V2P4HO18
mp-989646,1.7101,-1.221321251,6.999968018,0.01632565,-95.70048094,-9.570048094,LaWN3
mp-554495,4.3368,-3.300866661,3.355742441,0,-379.1645077,-7.899260576,CaZr(PO4)2
mp-979987,0,-1.144450332,14.75664668,0.014760848,-25.63020086,-6.407550215,YbThPt2
mp-707897,4.5634,-1.988152699,2.120476661,0.015104495,-277.9528518,-5.672507179,Ca4Al2H22CO20
mp-754940,0,-1.284468915,4.746343939,0.051063361,-21.84785791,-4.369571582,Ba3SiO
mp-31690,1.949,-2.543565885,2.781193572,0.092484265,-379.8287205,-7.304398472,Cr(PO3)3
mp-21178,0,-0.563891513,8.914196663,0,-153.3645529,-7.668227643,U2Co3Si5
mp-20591,0,-0.590005183,8.460521719,0,-36.01010476,-3.601010476,Yb2InGe2
mp-28828,0.6591,-1.893060244,2.301737688,0.030932971,-58.33437825,-3.88895855,Li6FeCl8
mp-27932,0,-0.347844223,2.862282838,0,-80.36942714,-3.091131813,Li9Ge4
mp-972002,0,0.05424999,8.097294058,0.05424999,-27.38939792,-3.42367474,Ac3Yb
mp-16947,3.185,-2.706020995,3.245571397,0.026634761,-276.7597786,-6.589518538,LiAlGeO4
mp-30959,3.5474,-1.041588123,1.377943033,0,-93.89513773,-3.912297405,LiHS
mp-781604,1.7227,-2.872538272,3.299380898,0.001123628,-155.7292433,-6.488718472,VOF2
mp-973091,0,-0.091589478,5.061036809,0.009717353,-13.07968115,-3.269920288,LaHoMg2
mp-21236,0,-1.083464136,8.304912255,0,-66.56643726,-5.547203105,BaPPt
mp-557151,2.0324,-1.128954983,3.999706265,0.011348371,-55.96124262,-3.497577664,ZnS
mp-29043,0.7152,-0.185199768,7.040272453,0,-125.547439,-1.743714431,Hg4Sb2I3
mp-976881,0,-0.028788715,7.684374942,0.368671163,-41.82868567,-5.228585709,Ni3S
mp-32310,3.3708,-3.137717239,7.702656657,0,-118.2024471,-7.880163137,Ba3Ta2NiO9
mp-558244,0.5303,-1.931987964,3.806802399,0,-67.19430541,-3.733016967,As(IF3)2
mp-28790,3.1127,-1.395371754,3.077921319,0,-360.415466,-4.870479271,Al13(TlS7)3
mp-720721,5.474,-1.272092317,1.625437544,0.026590139,-967.3879818,-5.898707206,SiH18C4N8(O2F3)2
mp-559642,4.8628,-3.467111533,3.884629086,0.003142001,-462.1001828,-7.701669714,CaZrAl9BO18
mp-778583,0,-1.856363046,4.368932604,0.076355656,-92.80947207,-6.187298138,Li3Mn2(CoO4)2
mp-557705,0.574,-1.855135336,5.006089874,0.021920731,-140.2479349,-5.843663954,OsO2F3
mp-1008278,0,0.139714175,7.839810943,0.14829232,-34.12951136,-8.53237784,Cr3Ni
mp-5040,3.3702,-2.116684023,4.333329111,0,-185.4106928,-5.79408415,CaTe2O5
mp-639733,5.6305,-3.271056238,1.766576873,0.018094778,-568.5915903,-7.897105421,SiO2
mp-760080,1.9613,-4.345312858,9.620401878,0.002250566,-287.5111476,-9.58370492,CeTh9O20
mp-1008624,0,-0.942250985,8.7646884,0,-18.37052399,-6.123507997,YBiPd
mp-743762,2.8699,-2.125281011,1.928746563,0.558266503,-364.1663035,-6.172310229,Ca2Al4Si8H14O31
mp-49,0,0,21.99374382,0,-22.43338185,-11.21669093,Os
mp-770557,0.8102,-2.535307402,2.839395047,0.01959834,-364.645559,-7.012414596,Mn2P2O7F2
mp-755898,3.4152,-3.902834074,9.039941104,0.006179952,-196.1475438,-8.915797444,Er3TaO7
mp-30898,0,-0.742624704,15.07981881,0,-152.4569129,-8.469828492,Ce2B2Ir5
mp-975142,0,0.361253603,7.065741757,0.552662753,-16.28697991,-4.071744978,RhI
mp-568151,0,-0.692579484,5.822531752,0,-117.7890225,-7.361813906,Ti5Ge3
mp-1008526,0,-0.422366506,3.112826043,0.334297441,-32.22446498,-8.056116245,B2CN
mp-558188,0.7386,-1.075330017,7.63588336,0,-134.3687885,-4.19902464,AgHg2AsO4
mp-1019269,2.0771,-0.924980974,4.201920398,0.00803878,-20.15626179,-3.359376965,Sr2H3I
mp-11883,0,-0.277235055,13.64970274,0.00388965,-80.65477562,-6.721231302,MgIr2
mp-21891,0,-0.436030681,6.811046113,0,-49.20065957,-8.200109928,PrSi2Mo2C
mp-20270,0,0.281806207,13.18433851,0.589149478,-166.3069787,-10.39418617,UWC2
mp-696403,6.0887,-2.309576152,1.693331849,0.002525446,-331.3127789,-6.902349561,BHO2
mp-2461,0,-0.362807441,5.106985524,3.35E-05,-15.9390066,-3.18780132,CaGa4
mp-21388,0,-0.100538863,10.06048883,0.075219712,-29.24016749,-5.848033498,U(CuGe)2
mp-758056,0.2514,-2.691788611,2.812784439,0.105550388,-261.2269094,-7.256303038,LiTi(PO3)4
mp-771647,0.4349,-2.302867377,8.602345194,0.089068205,-307.5331534,-6.98938985,La2Pt2O7
mp-850978,1.767,-2.106090122,3.959428803,0.071373153,-85.33247542,-7.111039618,VFeO4
mp-10889,0,-0.189958693,5.977832375,0.015918874,-19.28771255,-4.821928138,La3Al
mp-570786,0,0.017754685,0.965131509,0.017754685,-14.93549327,-1.244624439,KNa2
mp-39091,0,-1.167045301,5.706210628,0.072836584,-79.29251765,-5.663751261,Co2CuO4
mp-22084,0,-0.307846881,7.676511769,0,-95.2415042,-7.326269554,Zr(MnGe)6
mp-765552,0.4936,-1.915228798,4.245613747,0.060067177,-97.5156598,-6.094728738,Li2MnCoO4
mp-642642,0.3087,-0.498018597,5.082491955,0.020125091,-202.5346956,-4.219472825,Ba2(InP)5
mp-15761,0,-3.526432337,4.70311912,0.00410546,-736.4274071,-8.563109385,Ba4Ti12O27
mp-707201,0,-1.270575131,3.046597335,0.086182953,-274.5629301,-5.084498706,Cu4H10SO12
mp-24811,0.2206,-2.218254496,2.621174922,0.056303725,-187.4546525,-6.248488415,KTiH2S2O9
mp-862334,0,-1.04664584,9.438427999,0.000216772,-33.06242228,-8.26560557,Sc2IrRh
mp-1006351,0,0.08271038,5.280881875,0.08271038,-50.01126832,-6.25140854,CeY3
mp-560562,0,-2.90459651,3.370524672,0.016582393,-44.32143819,-4.924604243,Rb2CrF6
mp-761563,0.1132,-1.864385881,5.240567662,0.032194739,-89.0983799,-7.424864992,Mn2FeO3
mp-555407,2.4981,-1.882827926,3.969908695,0,-320.0466224,-5.926789304,Nd6Si4S17
mp-556296,1.0495,-1.528977332,3.483683184,0.026634326,-73.73503438,-4.608439649,BaS3
mp-10911,0,-0.650430753,4.330995599,0,-74.15597458,-6.179664548,Sc2Al3Ru
mp-9399,0,-0.974178559,6.792444796,0,-36.08061747,-4.510077184,SmTe3
mp-4112,3.7991,-1.786246497,6.427090627,0,-150.4308125,-5.372529018,Tl2SO4
mp-555282,2.5009,-0.749653445,1.953277282,0.080355226,-344.6646529,-4.535061222,Ga2S5N5Cl7
mp-568735,2.015,-0.204880402,3.17329409,9.52E-05,-271.0899279,-7.530275776,SiC
mp-24045,5.4239,-2.24397746,2.522071549,0.023698816,-595.2245187,-6.200255403,AlP(H2O3)2
mp-16037,1.1022,-3.263901914,8.302076131,0,-37.12564288,-7.425128576,Dy2TeO2
mp-601852,0,-0.948638576,7.409076337,0,-221.0413252,-6.907541412,La3Si2Rh3
mp-561326,3.91,-2.879794189,5.584966141,0.001397553,-78.78785814,-6.565654845,LuSeO3F
mp-550117,1.3597,-3.053256035,6.966254539,0,-79.82537181,-7.256851983,Sm4Se3O4
mp-566301,3.1736,-1.776254907,6.861125337,0,-486.8922848,-5.796336724,As3Pb5ClO12
mp-10721,0,-0.642820482,4.43976891,0,-107.7927589,-8.982729911,Ti2C
mp-583463,0.4334,-1.150248235,2.605779762,0,-100.9342605,-4.205594185,FeCl3
mp-631346,0,0.756325175,12.50437099,0.951864569,-22.16466292,-5.54116573,SrNiIr2
mp-561902,0.413,-0.60928994,5.735603766,0,-39.93197497,-3.327664581,CsAg3S2
mp-18300,0.2938,-0.837510095,4.043705994,0,-111.9983876,-3.999942413,Ca3AlSb3
mp-775167,0,-2.145891754,3.415484975,0.037219821,-160.4154688,-6.683977868,FeCu(PO4)2
mp-698183,4.8446,-1.657492964,1.617195496,0.014052605,-415.9154066,-5.264751982,Mg3P2(H22O15)2
mp-763729,0.8336,-2.234225052,4.271101666,0.083938115,-100.342247,-6.689483136,Li3NbFe3O8
mp-772137,1.7512,-2.851767688,7.625251826,0.085751415,-470.0631944,-7.122169613,Er2Sb2O7
mp-643010,3.2622,-0.475125162,4.439032869,0,-48.26486358,-3.447490256,Cs2H4Pt
mp-733455,2.4521,-0.49469824,2.512588173,0,-149.825033,-3.745625824,Li3H6Rh
mp-865713,0.2357,-0.372385426,7.656258594,0,-11.57068111,-2.892670278,Li2TlBi
mp-850864,3.1537,-3.872102818,7.283062184,0.044075076,-276.6485977,-8.645268678,Ho2TiO5
mp-743715,0.9537,-1.256534279,1.35193907,0.376300028,-190.257625,-5.006779605,TiH10N3F5
mp-985590,5.5161,-3.285036427,2.051748528,0.004114588,-189.8660546,-7.91108561,SiO2
mp-22899,4.2337,-1.199311805,4.063406218,0.036395705,-5.8256555,-2.91282775,LiI
mp-553909,2.1345,-1.223692921,5.39876379,0,-281.4873367,-5.026559585,Tl2(SeO3)3
mp-6957,0.0007,-1.00005043,5.991583064,,-30.24699669,-6.049399338,Ce(FeP)2
mp-760457,4.5917,-3.465596976,4.046783252,0.085418333,-86.30628239,-8.630628239,YBO3
mp-14842,0,-0.483214296,6.973139693,0,-166.8501152,-5.753452247,Mg3(Ni10P3)2
mp-867823,0.9211,-1.257137571,3.94876547,0,-89.74785812,-5.609241133,RbTaGeS5
mp-760353,0.1655,-1.851777668,3.653195427,0.089481421,-154.2727392,-3.856818481,LiCu2F7
mp-774251,3.3523,-2.507646599,3.012535695,0.047170064,-95.00756965,-6.786254975,LiFePO4
mp-570147,0,-0.764838056,6.159785243,0,-456.9033195,-6.527190279,Sc6Si11Ni18
mp-23095,0,-2.322462476,3.89516823,0.009517109,-59.16591888,-5.378719898,Ca3Cu2(ClO2)2
mp-1009720,0,0.763710594,9.411986824,0.763710594,-13.77198892,-6.88599446,RhN
mp-625,0,-0.142220932,5.408088299,0,-96.22459113,-4.811229557,Mg3Ru2
mp-14015,0,-0.006803636,8.532678733,0,-114.5775002,-8.813653859,HoMn12
mp-695831,4.1801,-0.889629193,1.92781363,0.082003821,-330.7763378,-6.36108342,CaH4(N3O)2
mp-4881,0,-0.854977629,7.668780045,0,-31.24944663,-6.249889326,Er(SiNi)2
mp-568329,0.0066,-0.35956321,4.407155818,0,-99.79202861,-2.772000795,K3Na2SnBi3
mp-12237,5.2355,-2.855600942,3.399852067,0,-591.6354602,-7.395443252,HoP5O14
mp-756134,0.5998,-2.534121879,6.72270909,0.051361234,-47.7316044,-7.9552674,ZrSeO
mp-1865,0,-1.500566484,14.52512518,0,-22.24700138,-11.12350069,UN
mp-642398,1.8148,-2.291714497,3.142675559,0.00232321,-231.4483119,-6.429119774,RbVSO6
mp-631473,0,0.736083411,6.273916595,0.920495586,-17.85850032,-4.46462508,KTi2Bi
mp-697807,0.9027,-2.494677563,3.015954146,0.037963151,-521.8649727,-7.248124621,LiMn4P7O24
mp-556760,3.27,-2.789193536,2.908260995,0.009462804,-327.6694957,-7.80165466,Nb2P4O15
mp-7955,0.5321,-0.630181282,2.977982506,0.003361273,-24.7439786,-3.092997325,Li3Sb
mp-22012,0,-0.17445436,8.421775714,0.087705014,-89.58734416,-6.891334166,Tb(MnGe)6
mp-763935,0.9162,-2.755693895,4.174005781,0.037241849,-130.6733792,-7.259632175,V6O7F5
mp-769612,0.6901,-2.562443741,3.228855109,0.07924194,-278.8821397,-6.972053492,Li6Mn3P6WO24
mp-554089,5.6604,-3.285962205,2.202918263,0.003188811,-94.94413665,-7.912011388,SiO2
mp-971757,0,0.126152661,10.86086917,0.126152661,-1.67928753,-0.419821883,ZnHg3
mp-631311,0,0.606374412,17.47689034,0.812508402,-31.2210207,-10.4070069,IrOsW
mp-14050,4.2497,-3.161720603,3.993742288,0.011824617,-569.1822702,-7.114778377,Ca3Ga2(SiO4)3
mp-1013736,0,-0.509973272,4.767073794,0.388218457,-16.12013721,-3.224027442,Ba3Bi2
mp-757608,1.8819,-1.772526768,5.081559813,0.014103312,-185.1132161,-5.444506354,Hg2P2H4O9
mp-707096,6.462,-1.903953453,1.929194726,0.008861414,-238.2979351,-5.673760359,K2P3H7O9
mp-3338,2.8582,-2.232909068,3.782712731,0,-87.01414732,-5.438384208,NaGaO2
mp-23866,3.3846,-1.160612509,2.750045615,0,-139.9956843,-4.999845866,H2SeO4
mp-980084,0,-0.344155774,9.382288045,0,-50.69612434,-5.069612434,Th(CuSn)2
mp-984728,0,0.499963295,2.797615026,0.541741741,-29.80814717,-7.452036793,BC
mp-865443,0,-0.602457653,13.11679935,0,-25.3310472,-6.3327618,LuRh2Pb
mp-2465,0,-1.022732595,17.73251032,0,-26.86686098,-6.716715245,DyPt3
mp-28264,4.254,-1.533373739,2.75817544,0,-56.77763054,-4.731469212,RbH3O2
mp-673814,0.1256,-3.934149444,8.183254875,0,-277.2859213,-9.242864042,La3U2O10
mp-653337,0,-2.282697706,6.485097888,0,-196.7373741,-5.786393355,Ba4Yb(CuO3)3
mp-2701,0,-1.213396996,8.113988704,0.039619455,-40.9848107,-10.24620268,NbN
mp-555866,4.8109,-2.344407829,2.082521868,0,-478.5780242,-6.836828918,K6Be4C6O19
mp-774449,0,-2.917104414,4.165260557,0.089144966,-212.5709138,-7.591818351,Li2Ti3SbO8
mp-761730,0,-1.229024026,4.508297725,0.039858829,-71.50388181,-5.500298601,LiCo3CuO8
mp-6358,3.0371,-3.018634964,3.211663878,0.000903633,-239.7059156,-7.490809862,NaTiPO5
mp-31471,0,-0.313291187,8.714675304,0,-52.44040746,-2.91335597,K3PbAu5
mp-555358,0.0132,-1.698790558,5.640989443,0,-57.65116634,-5.765116634,Ba2UCu2S5
mp-768204,0,-0.967812681,3.00336836,0.182179238,-151.6142057,-5.414793059,Li2Fe2S3
mp-559681,0,-1.956537811,6.152144553,0.011177667,-528.8962097,-5.748871844,Dy2CuTe5Br2O13
mp-541049,0,-3.289387655,5.3274722,0,-273.0611078,-8.031209053,Sr7Nb6O21
mp-11629,0,-0.391557838,5.064482502,0.001863508,-61.80869064,-4.754514665,Tb2Al6Si4Au
mp-865558,0,-0.871730899,7.876936327,0,-17.04178934,-4.260447335,AcTe3
mp-504100,0,-0.532439703,4.523438147,0.173404531,-56.59776705,-4.716480588,CuO2
mp-977113,0,-0.43795846,12.57909646,0.020418973,-15.08155401,-3.770388503,MgPdAu2
mp-978552,0,-0.358060464,10.19193013,0.188075769,-28.89837278,-7.224593195,SiRh3
mp-763299,0.8427,-1.814646668,4.680494529,0.064776935,-77.00751062,-4.278195034,Ni3OF5
mp-568017,0,-0.104754754,8.501370607,0,-255.2971602,-4.909560773,Ga8Cu3W2
mp-28263,4.3811,-1.553850995,1.897013938,0,-114.4219226,-4.76758011,KH3O2
mp-557387,2.8578,-3.474541361,6.040031662,0.036214827,-156.1266578,-7.806332892,Sr2TmNbO6
mp-561258,2.0288,-1.139758993,3.99607313,0.000544362,-70.16763346,-3.508381673,ZnS
mp-20465,0,-0.326708044,7.549096963,0,-61.81579829,-5.151316524,As2Pd
mp-10521,0,-0.415660792,4.532039762,0,-25.28738688,-5.057477376,Y(AlGe)2
mp-30531,0.0197,-0.527699604,5.972563364,0,-117.9013289,-5.359151315,Ta2Se8I
mp-9569,0.875,-0.697777258,3.980764462,0,-18.85642343,-3.771284686,Ca(ZnP)2
mp-780323,2.1964,-2.909331125,2.998061531,0.016594622,-171.3680991,-5.71226997,V3OF11
mp-770953,1.7507,-2.172127741,4.281097721,0.070944619,-189.1748688,-6.756245315,Be(FeO2)2
mp-764519,1.5635,-2.360553018,3.243704759,0.059251806,-312.1730477,-7.094841993,LiFe2(BO3)2
mp-20668,0,-0.317408955,8.151658053,0,-91.42373311,-7.032594855,Dy(MnGe)6
mp-776084,4.5424,-3.422878013,4.012239341,0,-222.8612788,-7.428709293,BaSiO3
mp-32591,3.0752,-3.388904035,3.556583736,0.057303102,-593.9195538,-7.423994422,Al2O3
mp-622198,1.6477,-2.529198202,7.756212936,0.039488158,-276.1122199,-7.266111049,Ti3(BiO3)4
mp-30618,0,-0.919612382,9.593133109,0,-66.20728177,-5.517273481,DySnPd
mp-543028,1.9408,-1.290075551,7.28359383,0,-226.3680988,-4.716002058,Tl2TeO3
mp-510548,0,-0.630221936,7.082069439,0,-79.00816222,-4.647538954,Y4Ga12Pt
mp-2381,0,-0.955323873,11.41558055,0,-13.82499686,-6.91249843,ErRh
mp-570990,0,-1.837198166,3.194292116,0,-36.71101252,-4.079001391,Cs2MoCl6
mp-40066,1.3689,-2.768566839,5.49607929,0,-146.3565517,-7.317827585,CaLaMnFeO6
mp-684489,4.445,-2.530572992,4.267886861,0.033818769,-296.1880621,-6.731546866,LiBiP2O7
mp-10233,2.9278,-2.093324149,2.687948766,0,-162.2742223,-6.761425931,Ca2BN2F
mp-31017,0,-1.578263823,7.305831839,0.00450369,-94.2176091,-8.565237191,Ce4B2N5
mp-21026,0,-0.572240101,8.268691774,0,-14.91359294,-3.728398235,Li2InPt
mp-632706,4.51,-0.630373781,2.297174188,0.096941111,-70.96391753,-4.730927835,ZnH8(N2Cl)2
mp-24192,0,-0.788771931,8.345707377,0,-13.41320031,-4.47106677,ErH2
mp-557022,2.8513,-1.736720762,5.010368405,0,-473.9526993,-5.642294039,Sb8Cl2O11
mp-3158,0,-0.68026829,8.527724565,0,-16.72119358,-4.180298395,Li2SbPt
mp-11226,0,-0.189620735,7.681711947,0.026601016,-18.38898019,-4.597245048,Tb3Al
mp-149,0.6244,0,2.280172328,0,-10.85063433,-5.425317165,Si
mp-28746,0.0227,-1.012341278,5.774876918,0,-70.5212603,-5.037232879,Pr3RuI3
mp-1009019,0,0.553119259,6.961795042,0.86553091,-15.30606454,-7.65303227,FeN
mp-755487,0,-1.793624127,5.524416664,0.090899824,-62.31036114,-5.192530095,Li2BiO3
mp-571008,0,-0.723871721,7.913160312,0,-31.91871223,-6.383742446,Pr(CoAs)2
mp-19496,2.7787,-2.259795141,3.567817795,0,-323.8438178,-6.746746203,KV2SbO8
mp-1001844,0,-0.993520354,11.21839696,0.939565605,-14.51757468,-7.25878734,HoN
mp-4152,0.3316,-0.899871341,3.684290254,0.08609873,-33.32810517,-4.761157881,Ga2CoS4
mp-7436,0.6038,-0.591884234,4.345356612,0,-20.25538885,-3.375898142,KCuTe
mp-2717,0,-0.427869431,8.441841738,0,-122.7873283,-6.821518239,Zr2Ni7
mp-18958,2.1656,-2.828132667,5.2887097,0.003889921,-266.4331671,-8.326036471,UMoO6
mp-559288,2.9357,-3.001844328,3.766275314,0.015913488,-214.7490092,-8.259577276,Gd(PO3)3
mp-770406,3.7485,-3.278355639,7.542854999,0,-291.620065,-8.10055736,Sm2WO6
mp-15371,0,0.284643121,8.783913443,0.400061977,-377.0773996,-5.545255877,Yb15C19