id,band_gap,formation_energy_per_atom,density,e_above_hull,energy,energy_per_atom,pretty_formula
mp-675778,7.0405,-4.142268700499666,3.7683255032614866,0.0314231942500065,-65.61091026,-6.561091026,NaY2F7
mp-755549,2.5519000000000003,-2.9482456332407403,5.262191598423101,0.06694762499999207,-136.16730751,-7.564850417222222,Y2TeO6
mp-25763,,,,,,,
mp-705156,,,,,,,
mp-569282,0.9215,-0.9657909140476191,4.125624219979325,0.0,-323.77220632,-3.854431027619048,LiCa10MgSb9
mp-755047,1.7121,-2.6402488091887504,3.868782349979593,0.050611637819999444,-146.89817955,-9.181136221875,Ti3N2O3
mp-767124,,,,,,,
mp-764539,,,,,,,
mp-29370,1.8522,-0.33774524216269813,1.6867848778303145,0.0243887137500014,-93.87641133,-3.91151713875,Na3BP2
mp-850410,0.6657000000000002,-2.4704561371428735,3.121821272614925,0.04313037223528582,-253.01466028,-7.441607655294117,Li2Mn3(BO3)3
mp-15567,2.3033,-1.1295195668750002,3.7975693229498093,0.0,-41.86729538,-3.488941281666667,Na3AuS2
mp-774929,0.4740000000000002,-2.0203388351275504,3.6179759481478295,0.07429623761160542,-362.30889562,-6.469801707499999,Na5Bi2P(CO4)4
mp-21489,1.2027999999999999,-1.5612083056250003,5.505603004812946,0.0022492391666704137,-55.55580787,-4.629650655833333,Rb2PbO3
mp-675419,1.9663,-2.0821796382291664,3.7992449299877116,0.034280664374999326,-43.92904057,-5.49113007125,LiPrS2
mp-561317,3.8843,-2.5742938242514293,4.228222651104452,0.079097960476191,-29.27914725,-4.182735321428572,Rb2NiF4
mp-4823,0.9249,0.027159595999999907,3.145073434896661,0.04087566599999981,-26.11867461,-5.223734922,Na2PdC2
mp-28734,1.0914000000000001,-2.080882769268183,3.3535132650451422,0.0,-122.98170715,-5.590077597727273,Zr6CoCl15
mp-765700,,,,,,,
mp-972831,3.6464000000000003,-1.377397944202,3.7071136797073567,0.04525700733332805,-74.1570037,-7.415700370000001,SiGeN2O
mp-643930,0.3500000000000001,-0.6268286145685705,7.154354224126625,0.004663835119045778,-172.42928335,-6.1581886910714285,Eu2H4Pd
mp-770280,4.1508,-2.510142294934211,3.518919951741108,0.0030770171052632023,-485.12727299,-6.383253591973684,Li6Bi(BO3)3
mp-755373,3.4908,-3.331575642656249,8.427721828287169,0.10084698269531955,-123.08069031,-7.692543144375,Lu2GeO5
mp-25696,,,,,,,
mp-767392,2.1243,-3.0953691239625845,4.004384493889048,0.045923441964278666,-398.17740619,-8.126069514081633,Li7Ti7Nb5O30
mp-625184,3.973,-2.181826756281333,3.3019704486193633,0.0016657140000049253,-110.27767718,-5.513883859,Sr(HO)2
mp-531358,1.8116999999999999,-1.9494464905012072,4.183101560848472,0.005797600869565045,-427.67633636,-6.198207773333333,Sr17(Ta5S21)2
mp-19492,4.3259,-2.4610024345890085,2.9682864824448982,0.18200883642857235,-393.17864024,-7.021047147142857,LiMn(PO3)3
mp-867524,0.6647000000000001,-1.3599381558669996,1.697286752999377,0.06336200274999726,-368.57551328,-4.607193916,KH4O4F
mp-554079,1.3504,-0.7110173259486369,1.9415259598871693,0.05208235023393826,-195.53462594,-4.443968771363637,FeS3N2Cl5
mp-646297,1.8286,-1.003454006871935,5.330499777557688,0.0,-336.25849285,-5.423524078225806,Hg4Pb2N6O19
mp-756431,0.3048000000000002,-1.8508261897916665,5.211371378125225,0.06316964375000023,-87.3972375,-5.46232734375,Li2CuSnO4
mp-780396,3.7110000000000003,-1.6292384757407408,3.8613124715124805,0.03755177166667023,-117.98242958,-3.2772897105555554,SrCa2I6
mp-1013895,,,,,,,
mp-556036,0.5443,-3.489212202566957,4.566735588976345,0.01950489039857395,-248.85432058,-5.409876534347826,Ba3Al2Cu2F16
mp-555230,4.1384,-3.148253772291666,3.3332399831669273,0.0,-588.24742565,-7.353092820624999,Rb2YGa(SiO3)4
mp-27649,2.0539,-3.6489943303750003,7.580602771771588,0.007436352750007202,-181.42278487,-9.0711392435,BaU2O7
mp-643718,2.3189,-0.4808583163022219,3.3322098287181667,0.004796550833333413,-38.71992658,-3.2266605483333333,BaMgH4
mp-8658,2.027,-1.0905358267582612,3.7335754552852225,0.0,-17.95028867,-2.9917147783333333,CsNaSe
mp-14659,1.6038000000000001,-0.618970693171875,3.2914370015907752,0.0,-60.94645094,-3.80915318375,KAsSe2
mp-764234,1.0399000000000003,-2.008187881132712,3.656946271065908,0.42092677102942133,-203.67021159,-5.990300340882353,Li13Mn3Nb2O16
mp-28289,5.9678,-0.9366527619099998,1.0920253017657757,0.02412133412500239,-84.98565833,-4.2492829165,SiH3F
mp-765356,,,,,,,
mp-697317,2.5453,-3.099067595739348,3.5392601646153174,0.006774412105261973,-1139.13858536,-7.494332798421053,Rb2YTi(PO4)3
mp-757407,0.9457999999999998,-2.0426302516203694,7.536996457895801,0.0,-190.85707182,-5.301585328333333,Sr2Tl2O5
mp-763172,,,,,,,
mp-9518,1.2365999999999993,-1.9969175149553573,5.903077656593435,0.0,-47.34845041,-5.91855630125,NdZnPO
mp-554896,1.2425000000000002,-1.3058115728473685,3.4883435869639636,0.06672208233552279,-109.13137057,-2.871878172894737,SbXe2OF15
mp-649177,2.1627,-2.2455616536418916,3.957528966340894,0.026487897865986376,-688.93823671,-4.654988085878378,ReTe5O6F25
mp-555394,4.0656,1.5052783737500004,0.5719008236891722,4.7832760429166665,-150.38218354,-3.1329621570833335,SiO2
mp-559175,,,,,,,
mp-721727,3.8798,-1.5941581468260793,1.6912936839652837,0.007718752671565632,-181.45970743,-5.337050218529412,NaBH8O7
mp-554015,5.5176,-1.2065414231209193,2.771885075931981,0.0,-52.9573241,-4.413110341666667,CsK(ClO4)2
mp-771176,,,,,,,
mp-8335,2.9865,-3.439426090714285,5.804495178166171,0.0,-53.4442868,-7.634898114285714,Ba2ZrO4
mp-27829,2.6092999999999997,-1.5212458407670835,2.789829716715484,0.0,-26.67129805,-2.963477561111111,Rb2SeCl6
mp-769366,2.5901000000000005,-3.314604939886364,6.746027079345601,0.0,-169.22748367,-7.692158348636363,Nd3SbO7
mp-706,1.7915999999999999,-1.434096505595,8.970179561225764,0.0,-9.18474433,-2.2961860825,HgF
mp-540231,4.1959,-2.3993441353521825,2.9355956068160047,0.22959883052083274,-315.5700095,-6.574375197916667,Li2FeP2O7
mp-559356,1.5714000000000006,-0.6033973333035709,6.29983820227017,0.0,-211.08974203,-3.769459679107143,Tl3AsS3
mp-850109,,,,,,,
mp-767128,,,,,,,
mp-771438,,,,,,,
mp-867336,0.31679999999999975,-0.6204762946111112,4.175911276991486,0.0,-33.59467773,-2.7995564775,K2SrCdSb2
mp-778697,3.8372,-1.422380623170368,3.5793772302936344,1.6449810800000009,-166.10666152,-4.152666538,LiMnF3
mp-24574,4.4543,-1.7749102189242194,3.5687368799335997,0.0,-361.2901469,-5.6451585453125,NdH5(SeO4)2
mp-763187,,,,,,,
mp-541832,1.9552,-1.7985764835714286,4.126975005499758,0.0,-137.24892597,-4.901747356071428,Ba2SnS4
mp-42190,3.9572000000000003,-3.3433961423200005,2.8401052300253378,0.0,-56.2104513,-5.621045130000001,K2NaTiOF5
mp-773339,,,,,,,
mp-36252,0.9502000000000006,-1.6315534684821427,6.695549658659065,0.06599184124999535,-78.7489631,-5.624925935714286,Nd5CuSe8
mp-510036,0.7806,-2.1705863236564626,3.10726189454739,0.17960977630954655,-284.49314711,-6.773646359761905,Fe2Cu(P2O7)2
mp-28931,0.7341000000000006,-1.9389005669444441,6.187132879521302,0.0,-104.24715737,-5.791508742777777,Ga2TeO6
mp-757470,5.0615000000000006,-2.1581159611047003,2.3824596701575342,0.0100606241935699,-185.88353753,-5.996243146129033,K2ZnP4(HO2)8
mp-754501,1.5254000000000003,-1.6841391754999997,4.9027721733687395,0.03710551733333567,-54.21980578,-5.421980578,Ca(CuO)2
mp-676881,4.1411999999999995,-3.962200093421052,7.343134211716165,0.0,-340.40504954,-8.958027619473684,Ho4Zr3O12
mp-720222,3.7823,-3.0495721988194444,2.5143435603952535,0.030055430121531224,-374.37023588,-6.932782145925926,Na3CaAl3Si3SO16
mp-32633,0.5317000000000007,-1.6671184397518384,7.535942730381929,0.0,-377.74704308,-5.555103574705883,Dy6Se11
mp-779519,3.604,-3.688770663382353,7.685256355785097,0.0054618908823727,-285.42638719,-8.394893740882353,Ba4Hf3O10
mp-769970,,,,,,,
mp-560170,3.3427999999999995,-3.041642022613999,5.50750971659138,0.0,-137.17836598,-6.858918299,Nd5Te2Cl3O10
mp-761419,,,,,,,
mp-6386,2.8533999999999997,-2.042852037625,3.6486063195295437,0.0,-331.38598644,-5.177906038125,K2ZnGeO4
mp-30957,5.4757,-2.9964649859203294,3.4260971958484,0.0,-196.37158153,-7.552753135769231,Pr(PO3)3
mp-3540,3.1254999999999997,-2.2351802078472223,4.815589609543438,0.0,-135.83287336,-5.659703056666667,Li2SnO3
mp-762715,,,,,,,
mp-560339,4.8532,-3.4598681905263162,2.978173267053778,0.0052795724561409685,-301.85133993,-7.943456313947368,Ca2Zr(SiO3)4
mp-566398,,,,,,,
mp-651961,0.9773000000000001,-0.32910300119999986,5.394512160038901,0.0,-216.32989452,-4.3265978904,Nb4Te17I4
mp-510293,2.4614000000000003,-1.4869554059548615,7.340013351243956,0.0,-98.48921225,-5.471622902777778,Pb3SeO5
mp-761364,,,,,,,
mp-1413,0.5049999999999999,-0.6092533057142866,6.117527235320207,0.0,-43.8574415,-7.309573583333333,P2Ru
mp-759433,0.5473,-2.6583402017722224,2.8305888794959535,0.07267435944443967,-81.70757543,-4.539309746111112,Li3CuF5
mp-554736,5.4565,-1.8673176239042664,1.8918394491045407,0.011248138250000927,-286.74935848,-5.7349871696,CaB2(H6O5)2
mp-755716,4.1943,-2.9757180865299997,6.711285163703713,0.08582398499999666,-56.43269763,-7.05408720375,HoHO2
mp-767734,,,,,,,
mp-505166,1.4948000000000001,-2.3796534775,7.518342665755119,0.03765500250000464,-88.40204989,-7.366837490833333,ErCu(WO4)2
mp-769074,2.5046999999999997,-3.0013969158944653,2.837337807386989,0.01112627139098965,-277.39147552,-7.497066905945945,Na2LiTi3Al(PO4)6
mp-625405,,,,,,,
mp-541582,1.1314999999999995,-0.399490003229167,8.378113018457592,0.0,-82.5392806,-6.878273383333333,ReSe2
mp-735063,5.4590000000000005,-1.0777066808190625,1.6853968732575577,0.03208480368485134,-373.84520659,-5.84133135296875,H7CSN3O4
mp-758225,2.3235,-1.5765718150337829,8.673142691500392,0.018828964442567653,-208.6318331,-5.6386981918918915,Bi10(Pb2O7)3
mp-29265,5.4318,-2.748374818492646,3.9116454692063587,0.0,-235.25122712,-6.91915373882353,Nd2(SO4)3
mp-696129,2.3830999999999998,-1.316244876852381,1.861844622498998,0.011112883400000939,-219.84238247,-4.3968476494,Li10Si(PS6)2
mp-766988,,,,,,,
mp-560026,5.1193,-3.094061957728147,3.0122144126000654,0.024607765555556327,-493.3892244,-6.852628116666667,Mg5B3O9F
mp-31517,2.5310000000000006,-2.950154697499999,8.075397351643838,0.0,-323.90102978,-8.997250827222222,Ta2CoO6
mp-29384,2.274,-1.846118840206,3.3379692509024737,0.0,-125.1501976,-3.12875494,Rb3TlCl6
mp-29075,1.8019000000000003,-1.2176788482060001,4.277429115361503,0.0012227044999755243,-135.83228069,-3.39580701725,Ga3Bi5Cl12
mp-542140,1.0857,-0.4937017650459552,6.488255602319389,0.0,-160.020245,-4.706477794117647,Ta2Tl4Se11
mp-23238,0.8864000000000001,-0.47607656374999935,5.9165934794901585,0.0,-204.00864373,-5.100216093249999,Ta3I7
mp-773003,5.3688,-3.1455682681860906,4.409210289138595,0.04455861328947286,-291.49488247,-7.670917959736842,Er2P4O13
mp-757021,3.0504,-3.0504122313750006,5.554200744169701,0.0,-35.87950105,-8.9698752625,KGdO2
mp-9722,0.6841999999999997,-0.5621394886111108,3.5474364283627158,0.0,-81.00524734,-3.3752186391666665,Na2LiGaAs2
mp-770701,3.7482999999999995,-2.7150305647549016,2.7652061692890024,0.16901221926470633,-235.47880883,-6.925847318529412,Li2Si4NiO10
mp-542396,,,,,,,
mp-555524,4.1655999999999995,-0.6089825657114494,1.6540984445030855,0.02531594811595017,-289.53155639,-6.294164269347826,Na4MgC6(SN)6
mp-565866,,,,,,,
mp-555034,1.8929,-1.6883846183763636,3.880233538588193,0.0838218328409086,-157.87747116,-3.5881243445454545,TeAs(IF2)3
mp-504646,1.4284999999999997,-0.779100930125,5.502412774773406,0.08164327121875559,-165.35112959,-4.13377823975,In5(BiS4)3
mp-27684,0.9695999999999998,-0.9447143169642855,9.508465319852439,0.0,-57.59321661,-4.113801186428572,Tl4O3
mp-541692,0.6920999999999999,-0.2453692150000002,4.713661531274038,0.009569181904761859,-177.85917384,-3.176056675714286,Na2In2Sb3
mp-625909,2.7803,-1.3616498279072728,3.1708843923702896,0.06072173545454529,-110.66011679,-5.030005308636364,Ba(H2O3)2
mp-562102,5.2059,-2.24952052690909,2.407830809277559,0.0,-127.26232341,-5.784651064090909,K2S2O7
mp-28315,3.1975,-1.5367462249999997,3.637818372215697,0.0,-63.10821357,-2.868555162272727,Rb4CdBr6
mp-776315,1.6486999999999998,-2.347356372951998,5.587604754312022,0.00336164850000209,-391.86234375,-9.79655859375,Zr2N2O
mp-568730,0.2688000000000006,-0.056003667692307385,6.097706677672723,0.008263955000000323,-50.51821683,-3.886016679230769,Ge4Te7As2
mp-560265,4.9438,-2.6907234587500013,2.5469016017758324,0.008063396000009604,-673.50323259,-7.483369251,CaCO3
mp-763507,1.3676,-1.7381558866666669,3.648061252188286,0.1992318383333327,-81.82101072,-5.844357908571429,LiCoGeO4
mp-27499,1.9087000000000005,-1.2863771918750004,4.073834071386201,0.0,-87.65250928,-4.382625464,BaTeS3
mp-22329,0.5451999999999999,-2.7584210477499993,7.395426776772997,0.0,-150.26809433,-7.5134047165,NaNd2OsO6
mp-571662,1.9516999999999998,-0.853657425170536,4.164638828590041,0.0,-185.54008357,-4.63850208925,KLa(PSe3)2
mp-558801,0.4259000000000004,-2.8072261272258823,3.64060245941208,0.037745692107843176,-177.68645673,-5.226072256764706,K2Pr4Cl9O2
mp-762892,,,,,,,
mp-680760,2.2927,-0.7677415659090908,4.084454317101206,0.009642853806818064,-123.6415117,-2.8100343568181816,In4Br7
mp-6504,4.089700000000001,-2.570615266083334,3.689017907328621,0.005160906999999604,-73.14955186,-7.314955186000001,BaMg(CO3)2
mp-16872,3.6671,-2.6091738383578433,3.2689701153367645,0.00501199235294969,-226.91935203,-6.674098589117647,RbLi2Ga2(BO3)3
mp-19893,3.3293,-1.8187937297499999,6.271760759299975,0.0,-139.0812977,-6.954064884999999,PbCO3
mp-765218,,,,,,,
mp-560874,4.071199999999999,-2.3604865515292306,6.1614890061029355,0.0039536892307694416,-86.79910782,-6.676854447692308,BaPb2C2(O3F)2
mp-775103,1.4049,-2.95205253715375,3.2508334149311757,0.017911684375000014,-204.71242577,-6.3972633053125,V4(OF3)3
mp-554503,2.0201000000000002,-1.142735521026785,3.9986147764696507,0.0007673958928577918,-196.50180239,-3.5089607569642856,ZnS
mp-27600,2.2077999999999998,-2.245515809972527,4.963246440665297,0.01998416628205124,-306.80883737,-5.900169949423077,Cd3(PO4)2
mp-22997,3.4419,-1.227159196086667,6.130200011102995,0.010142676666667239,-41.13937862,-3.4282815516666667,PbBrCl
mp-14385,3.8435999999999995,-3.324799215494792,5.412678133065142,0.0,-730.06751687,-7.604869967395833,Ba3Tm(BO3)3
mp-1013922,0.6380000000000001,-2.367615180539965,3.147521241947683,1.8015783585118994,-397.49276505,-7.0980850901785715,LiCr2P2O9
mp-759873,2.25,-1.8147371683871432,4.866564886082383,0.07620644351191075,-241.36979528,-5.746899887619048,Sb8O11F2
mp-17750,2.0843999999999996,-3.2235556315625002,6.258480444494569,0.0,-243.59838721,-7.6124496003125,Pr2SiTeO4
mp-773239,,,,,,,
mp-571636,1.4386,-1.10921726663,4.002542458129179,0.0017526915625003525,-12.44793848,-3.11198462,InCl
mp-23541,2.3665,-1.0380602997500001,4.15128875889083,0.0,-51.16820801,-3.198013000625,KSn2Br5
mp-762693,,,,,,,
mp-867964,1.6697,-0.7277445600595238,4.207010397267104,0.0,-114.68951557,-3.822983852333333,Rb4P2PbSe8
mp-1019787,4.2332,-2.6575926844824553,2.4740627603126923,0.0,-524.56140162,-6.902123705526315,K2NaZn(BO2)5
mp-29501,0.9105999999999999,-0.33042977649999977,4.227171315292928,0.0,-140.2865789,-3.5071644725,Rb3AsSe16
mp-758689,0.8446999999999998,-2.6420757230949996,3.6247369515227077,0.08677334875000042,-73.2895631,-4.58059769375,Li3CuF4
mp-31292,0.8547,-0.2760357243421053,4.3027887417453865,0.0,-136.63363498,-3.595621973157895,Rb2PdSe16
mp-540026,,,,,,,
mp-675800,0.6735000000000002,-0.757137996560846,1.9409146575263223,0.028003846805556343,-80.98753332,-4.4993074066666665,Li5TiP3
mp-768486,3.6732,-1.9040123014338235,3.1748677910446936,0.007604917647058507,-203.98632704,-5.9995978541176465,Sb2(SO4)3
mp-540336,,,,,,,
mp-762866,,,,,,,
mp-638086,1.431,-1.6309193117250005,4.607611579575483,0.008267480833331398,-158.46250419,-5.282083473,K3Th2Cu3S7
mp-765418,,,,,,,
mp-777012,,,,,,,
mp-505702,3.4145,-1.728848051785714,6.870072524613877,0.0,-182.94618863,-6.533792451071428,Pb2CO4
mp-766809,,,,,,,
mp-600156,3.2603999999999997,-0.983173882973,1.8252933471507802,0.022735423812502376,-909.20055106,-5.6825034441249995,H22RhC3(N3O4)2
mp-773769,,,,,,,
mp-707571,4.1941999999999995,-1.743261966607082,1.9697846510410224,0.011327470520833494,-1000.3715149,-5.210268306770833,Na3SiH11O9
mp-763014,,,,,,,
mp-555846,7.199400000000001,-4.053214501207143,4.3469739690235425,0.013197809285721007,-164.55919535,-5.877114119642857,BaAlF5
mp-541715,0.6015999999999999,-0.947708069030612,4.3709361567032285,0.0,-126.63526591,-4.522688068214285,Ba3GaP3
mp-703568,5.5549,-2.2103499291146154,3.1844875166101216,0.0007469209615429406,-312.17718686,-6.003407439615385,BaH2(SO4)2
mp-762157,,,,,,,
mp-761432,,,,,,,
mp-771752,,,,,,,
mp-23412,1.3726,-1.4623790477883336,2.5010053393908422,0.0,-77.35691165,-3.2232046520833335,SbCl4F
mp-558088,5.6341,-3.1055853260582014,1.4055306044599083,0.025402419537035925,-805.95063941,-7.462505920462963,AlPO4
mp-556882,5.6423,-3.2566286229166663,2.5139540704076833,0.021369046249999357,-378.95371938,-7.89486915375,SiO2
mp-556672,2.5848000000000004,-1.5249950194097224,4.238682277807103,0.0,-200.73226369,-5.575896213611111,Sn(SeO3)2
mp-18957,2.0082,-2.0439639701537935,4.036977204468766,0.0,-101.84106457,-6.365066535625,NaMnO2
mp-541684,0.6989999999999998,-0.480248407065476,1.890659905556371,0.0,-166.27867869,-3.464139139375,K3AlP2
mp-560821,4.4278,-3.4499551166666667,3.1933641403705675,0.037438898690480116,-606.6559658,-7.222094830952381,Ca2SiO4
mp-13613,7.013199999999999,-3.5873017126024567,2.5063643858792624,0.0,-407.35264987,-5.359903287763157,K2Mg2Be3F12
mp-761567,,,,,,,
mp-696815,6.8114,-2.274319516662,2.3769465157884104,0.0,-212.32956146,-5.3082390365,AlH4NF4
mp-769571,2.9284,-3.4141495853409096,7.361297815145984,0.03704062227274285,-189.65759988,-8.620799994545454,Ba2Ta2O7
mp-572711,,,,,,,
mp-600159,1.3327000000000002,-0.4341804126338458,2.000606795344997,0.08473092684667716,-290.53422917,-5.587196714807693,NiH4C2(S2N)2
mp-625604,3.7298,-1.2290687107200005,1.8037659217731021,0.028001135892856688,-259.93672127,-4.641727165535714,H9BrO4
mp-23563,5.5534,-2.2811986023591664,1.6915073834698682,0.027397718645832292,-127.80931492,-5.325388121666667,SiCl2O
mp-691115,0.9979,-1.7617111273686905,3.89559459264788,0.2921693611564642,-265.96778462,-6.33256630047619,Li4Mn5O12
mp-569060,1.4721000000000002,-0.646320335769031,3.7381452305904688,0.0,-59.70842136,-3.731776335,Cs2PSe5
mp-14864,3.4477,-2.9080615281157636,3.4130090818294363,0.0,-369.13021169,-7.098657917115385,Cs2Ti(PO4)2
mp-776654,1.1583,-2.465946624652778,3.7697760937377938,0.03504315333332997,-160.49494544,-6.687289393333334,Li7V5O12
mp-17394,3.6473000000000004,-2.8747017433333335,4.111224253195639,0.0,-198.00553348,-7.071626195714286,NaYGeO4
mp-768920,4.5219,-2.338143512020089,4.570213093349938,0.021571407857149616,-181.19510112,-6.471253611428572,Ho2(SeO3)3
mp-849384,0.8757000000000001,-2.732794119698613,2.872031452905005,0.0,-564.84310904,-7.149912772658227,Li11V8(PO4)12
mp-754410,3.8133,-3.828165345238095,7.678027547616658,0.049535336607140934,-218.91759528,-7.818485545714286,CaTm2O4
mp-559143,2.8887,-1.8341177530625004,7.032375289419751,0.00441016033333419,-116.85185772,-5.842592886,Pb3SO6
mp-761135,3.3397,-2.4734107652857142,3.258611659619736,0.05033736500000252,-261.28165249,-6.53204131225,Li3Sb2(PO4)3
mp-774223,0.5609,-1.4753598805415382,2.9500506709666845,0.0275708727564119,-504.75711804,-4.8534338273076925,K2H2OsCCl5O2
mp-752443,3.3378,-1.7548681792105267,2.78876417686147,0.0,-219.63414473,-5.779845913947368,Te(S2O7)2
mp-553242,1.2218999999999998,-2.3022481018749996,7.8784091998328,0.0,-49.5785492,-6.19731865,NdBi2BrO4
mp-756076,3.6654999999999998,-3.7246645808333327,8.674910157292766,0.018544748333333416,-223.29117096,-9.30379879,TbTaO4
mp-767872,,,,,,,
mp-754826,2.9596,-2.9874545238577586,3.704454961993159,0.0,-55.33804102,-6.9172551275,CsScO2
mp-37923,1.6500000000000004,-2.207460005357144,6.050666256375882,0.022072145178569258,-85.10930045,-6.079235746428572,Sm5AgS8
mp-867593,2.8968,-1.5835968256200792,3.191154974757925,0.0,-452.98597329,-5.392690158214286,Ag2H4(SO4)3
mp-778417,,,,,,,
mp-768468,0.3426,-1.6337836382954556,8.080823066303552,0.08057420181818298,-243.86991409,-5.5424980475000005,In2Bi2O7
mp-16402,2.3655999999999997,-1.8340552810526305,4.096043586694798,0.0,-445.32226043,-5.859503426710526,Tb4(SiS4)3