id,band_gap,formation_energy_per_atom,density,e_above_hull,energy,energy_per_atom,pretty_formula
mp-1020026,6.087199999999999,-2.865970321458333,2.356492723125479,0.0012866933333421926,-84.52108939,-7.043424115833333,LiBeBO3
mp-783902,0.48429999999999973,-3.171841356249999,5.413375207162545,0.07180831454545888,-88.62419922,-8.056745383636363,Dy2V2O7
mp-20930,0.23930000000000007,-1.4921791481250004,6.107406489797455,0.005283975937499186,-21.31093793,-5.3277344825,InCuO2
mp-756811,2.1634,-1.5939722493518518,1.9309814015993723,0.03135779277777839,-87.53690793,-4.863161551666667,Li4TiS4
mp-315,4.4044,-2.7017004307933328,7.55032583181171,0.0,-14.65879111,-4.886263703333333,PbF2
mp-764672,1.4555,-2.3528120252713176,3.194132386619742,0.058144322354660716,-308.11915835,-7.165561822093024,Li3Fe8(BO3)8
mp-29252,3.5509000000000004,-2.297462149888333,4.291269580827604,0.006857154999997839,-109.13945695,-4.547477372916666,Sn2ClF3
mp-28291,4.9602,-2.3663097683686667,2.6723963117264655,0.0,-128.20947899,-4.273649299666667,Ge(SF6)2
mp-554376,2.7137000000000002,-3.9534567566692416,4.156307104764491,0.0,-356.63294289,-8.105294156590908,Y4TiSi2(O3F2)3
mp-1019793,4.484,-3.00383846972449,3.482391192308465,0.0,-190.22567599,-6.7937741425,K3La(PO4)2
mp-771292,,,,,,,
mp-772919,5.6869,-3.394535928683333,6.850414711480769,0.020551346929998715,-413.04991537,-8.2609983074,Tm4(B2O5)3
mp-556440,4.1816,-3.2615042121836737,3.0589458468887023,0.0,-284.7185991,-8.134817117142857,CaZr4(PO4)6
mp-684944,0.4851000000000001,-0.7707477533750009,3.2704360903438285,0.16025377074999891,-79.10430331,-3.9552151655000003,In2S3
mp-27402,0.7301,-1.5199484857914285,2.233207815850545,0.09821018964285821,-101.55122845,-3.6268295875,Na2CoCl4
mp-722906,0.6148,-2.0149265066722424,2.0834190645070674,0.019596650817319095,-637.94601638,-6.134096311346154,Na3CuB8H17O23
mp-767620,1.3800999999999997,-2.758697849880952,3.8990243184882765,0.08886786714286465,-204.10486601,-7.289459500357142,LiVSiO4
mp-779099,,,,,,,
mp-1019578,2.4566999999999997,-1.3254721645599994,3.010348530417372,0.00129830653845886,-171.5801325,-6.599235865384615,Ca5(SiN3)2
mp-559426,3.4581000000000004,-3.841793662159091,6.009375813184668,0.0,-197.27317623,-8.96696255590909,Pr2Zr2O7
mp-504427,1.9809,-3.163045991704546,5.587123782606896,0.0,-183.82182452,-8.355537478181818,Ti3PbO7
mp-761098,1.0123999999999995,-2.0841825935714287,3.8273069045923434,0.07093906109374792,-96.16320554,-6.01020034625,Li3Cu3(PO4)2
mp-762410,,,,,,,
mp-27167,2.4396999999999998,-2.071297108095,4.846051166632054,0.0,-52.39606415,-4.366338679166667,Sn2IF3
mp-540990,,,,,,,
mp-773137,0.8276000000000001,-0.6929625360000001,3.8127058403717307,0.0,-18.15033134,-3.0250552233333337,KCaBi
mp-552028,0.8251999999999997,-3.3114508575,5.0129830860151126,0.0,-89.92665861,-8.175150782727274,Nd2Ti2S2O5
mp-31002,0.2570999999999999,-0.5396218535714284,4.677043879814502,0.0,-21.45492577,-3.0649893957142855,Rb2Te5
mp-632296,6.7187,-1.786034339905,1.7215413101945176,0.0,-16.46471095,-4.1161777375,HF
mp-676275,4.1223,-3.2813516025669567,7.223741909601144,0.04819690565217627,-126.29912317,-5.491266224782609,Nd2Pb5F16
mp-1017508,0.6791,-1.0046598849999997,7.712942636503309,0.0,-17.18784484,-4.29696121,LuTlTe2
mp-763212,1.0707,-2.4261918886705547,3.330767478966907,0.2988219758333326,-142.74893712,-5.94787238,Li2VO2F
mp-16608,0.8552999999999997,-0.4526609129999997,10.820074749474086,0.0,-327.90516344,-8.197629086000001,Si3Os2
mp-25085,,,,,,,
mp-754693,2.1029,-2.23453278075,8.861438356893977,0.038044917312499926,-127.99904056,-6.3999520279999995,Lu(BiO2)3
mp-11711,2.7361000000000004,-3.16253826225,4.687506664649323,0.022015202312500648,-182.4273392,-9.12136696,Gd(BO2)3
mp-764525,1.3629,-2.336492488759689,3.232777624295167,0.07446385886628804,-307.41741828,-7.149242285581395,Li3Fe8(BO3)8
mp-6745,4.2717,-2.898438084916667,3.5902901466748687,0.041440000499997076,-140.48433549,-7.0242167745,LiGa(SiO3)2
mp-19441,3.3907000000000003,-3.1740569418749995,2.810083778846347,0.004458043281248436,-498.29855433,-7.78591491140625,CaCr(Si2O5)2
mp-762772,,,,,,,
mp-3374,1.9966,-2.7790779829166667,8.183876706962321,0.0,-422.06997953,-7.034499658833334,Nd4Au2O9
mp-776864,,,,,,,
mp-703589,2.6389,-2.8003057038099994,2.546233700950807,0.0159974777380949,-236.22064597,-5.624301094523809,K4Ti2H2O5F8
mp-24124,4.8667,-2.4545386946666667,4.5465329312617815,0.0,-71.44006123,-5.953338435833333,NdH2ClO2
mp-5114,1.7161,-1.2082898573181817,2.716529454058089,0.0,-68.2983412,-3.1044700545454544,K6HgS4
mp-643658,4.863899999999999,-2.630229364273079,2.7995999762926567,0.0,-93.01863753,-6.201242502,Na3MgP2HO8
mp-504997,1.5642999999999998,-2.355809773333334,6.8098795636251435,0.03345830437500119,-88.31664385,-7.3597203208333335,NdCu(WO4)2
mp-767622,1.7415000000000003,-2.956192569379048,3.037326980658286,0.09179433492857392,-161.67546293,-5.7741236760714285,Li2VOF3
mp-766139,0.37239999999999984,-3.07334009833303,2.790042760757889,0.09499131590909027,-124.73830013,-5.669922733181818,Li2V2F7
mp-768505,2.8846999999999996,-3.229246147416666,8.013989436046078,0.0,-218.5936055,-7.286453516666667,LuGaO3
mp-768050,,,,,,,
mp-24618,6.1343,-1.7948327434557891,1.7654017689597639,0.0,-389.99250033,-5.1314802675,AlH10N2OF5
mp-768273,2.3862,-2.5489028822499997,5.560867831721447,0.0,-334.89390058,-8.3723475145,Gd3As5O12
mp-740752,4.0226,-1.9242063469113042,3.979768286730277,0.011749822065222126,-591.72260038,-6.4317673954347825,BaRe2(H2O3)4
mp-541083,3.4065,-1.0520708806947903,1.7298780555587616,0.07664282739828998,-205.20301086,-6.035382672352942,KPH5C2S2(NO)3
mp-972199,2.2144000000000004,-2.1513678960452585,5.0008196052085285,0.0,-42.16243958,-5.2703049475,CsTbS2
mp-558867,5.2091,-1.1301646720733336,1.7501640200650719,0.0,-564.83308775,-4.7069423979166665,H7ClO7
mp-6870,6.0552,-3.185795117495926,2.292830808187384,0.0,-59.51886805,-6.613207561111111,KBe2BO3F2
mp-767707,2.1172,-2.3051463488690467,3.1009844258338415,0.3723918300892901,-192.09102945,-6.860393908928572,Li2Fe5Si5O16
mp-568848,3.8516,-1.4172014275900002,2.6453996070010204,0.0,-78.29916925,-3.2624653854166668,GaCl2
mp-556278,2.0126,-2.2765088299822365,3.541325036059241,0.03693309392543842,-550.72969009,-4.83096219377193,Bi6As9Se4S10(O4F13)5
mp-558672,3.5102,-2.7214823150892857,5.338199981754271,0.011700163928564322,-200.70949271,-7.168196168214286,Si3Bi2O9
mp-505747,1.0027999999999997,-0.8443935619791668,5.0819259760852065,0.0,-94.18146703,-3.9242277929166662,TlIn5S6
mp-677422,3.5108999999999995,-2.6703281168159996,3.400781944700875,0.014935294666667431,-191.95642958,-6.398547652666666,Ca2Ga2Si(HO4)2
mp-868531,,,,,,,
mp-558690,5.3994,-2.6380252580902783,3.9275349017261547,0.05844668291666366,-178.7059691,-7.446082045833333,ZnB4O7
mp-557289,2.7254,-1.932821206212347,1.921124484141564,0.0,-274.19570268,-4.896351833571429,TiP2Cl8O3
mp-6319,6.6578,-3.60198294333303,2.83696288598072,0.0,-115.06516214,-5.230234642727273,Na2MgAlF7
mp-560431,5.5583,-2.7660303142831637,2.348019211232391,0.0,-392.10033206,-7.001791643928572,KBe(PO3)3
mp-626194,4.8739,-2.2992620245871427,2.5655954904752214,0.01470024750000043,-179.53403867,-6.4119299525,Sc(HO)3
mp-28920,0.5641000000000003,-0.6033127438059371,7.871390165018744,0.0,-99.52176193,-3.1100550603125,Tl5Se2Cl
mp-29200,2.5213,-1.3947552269699992,1.8599163006180135,0.0016008150000086374,-92.53289192,-5.783305745,KNO2
mp-29637,2.3228999999999997,-1.5032126519686522,3.048483110686902,0.0,-79.92040134,-3.632745515454545,K4MnBr6
mp-540673,,,,,,,
mp-3370,2.752,-3.026222006856061,6.024946087678504,0.0,-167.84967926,-7.629530875454545,Y2Sn2O7
mp-4182,0.6317000000000004,-0.8076841973958331,5.029493161129396,0.0,-45.3245861,-5.6655732625,CrAgS2
mp-11603,0.9190999999999998,-1.9574924631875001,4.329936472108443,0.0,-88.59558242,-5.53722390125,KNd2CuS4
mp-752679,3.2601999999999998,-3.681052631428573,5.926709216240042,0.05547338696428561,-145.80347502,-10.414533930000001,CaGd2O4
mp-565580,,,,,,,
mp-24990,,,,,,,
mp-14526,3.6565000000000003,-2.6958135190476193,4.808189444615715,0.0,-293.15173195,-6.979803141666666,Na4Hf2(GeO4)3
mp-18876,1.7896,-1.13107726575,2.7130382950046594,0.3238741283333315,-62.95997525,-5.246664604166667,K3CrO8
mp-561083,4.2047,-2.518424621313776,4.319173999473701,0.0,-702.98340453,-6.276637540446429,Na3Bi(PO4)2
mp-18741,2.9926,-2.101385264166668,2.833018592736409,0.0,-84.44372624,-6.031694731428572,RbLiCrO4
mp-604558,,,,,,,
mp-553930,2.7033000000000005,-2.0182171684424595,6.859949391109648,0.0,-529.75141845,-6.306564505357143,B2Pb6SO12
mp-3785,0.5765000000000002,-0.3694082662499998,6.757657517570453,0.0,-26.30795553,-3.28849444125,TlGaTe2
mp-29883,4.2767,-2.0180328348666667,3.5040407197800976,0.006045040000000057,-124.34296866,-3.4539713516666666,Rb3PbCl5
mp-779306,2.1904000000000003,-2.1837871620138896,2.8577069625898077,0.34748720010416356,-306.00514256,-6.375107136666667,Li3Fe(BO3)2
mp-762568,,,,,,,
mp-774121,,,,,,,
mp-755478,0.7610000000000001,-1.4557437987499995,8.052450051833683,0.0,-49.61666912,-4.961666912,CdBiO3
mp-17031,5.298,-2.9470291826266246,2.8030691104756875,0.0,-311.27810316,-7.074502344545454,KAlP2O7
mp-560926,,,,,,,
mp-753195,2.0086,-1.232569203690476,2.792294351601022,0.03428402469387937,-39.29591607,-5.613702295714285,Li2WS4
mp-708993,4.5395,-1.6465160032455661,1.6398814694371393,0.019000844913801274,-604.34026417,-5.209829863534482,Na2PH15O11
mp-675372,2.2314000000000003,-3.6757973243749995,5.1067121968550815,0.09685970964285495,-251.72483403,-8.990172643928572,CaZr4O9
mp-684082,4.004099999999999,-2.4838336644973538,2.5658578314002476,0.04837807722222909,-246.69611494,-6.852669859444444,LiSb(PO3)4
mp-21547,0.28469999999999995,-0.37767520291666656,4.01367668552388,0.0,-137.69922506,-2.8687338554166666,Na3InSb2
mp-542819,4.7562,-0.553233427044039,2.6272944924763157,0.0006695578571420668,-138.84319725,-4.9586856160714285,Cs3B12H12Br
mp-644129,4.0056,-2.0129545930061425,3.1280785322272555,0.0,-231.90741282,-5.797685320499999,KNiPH2O5
mp-771967,3.4030999999999993,-2.8084850153642855,3.6356503016976816,0.08823889267857332,-262.26902341,-4.683375418035714,BaLaCl5
mp-765799,,,,,,,
mp-772424,2.4307,-2.5490026486519604,2.8872168111446137,0.1200441613235439,-242.36259658,-7.128311664117647,RbLi2V2(BO3)3
mp-774326,0.6976000000000001,-1.888820500244445,4.644051556815549,0.07126110356481785,-78.39053208,-4.35502956,Ni3OF5
mp-766753,,,,,,,
mp-504964,,,,,,,
mp-626701,1.7221000000000002,-1.6265459500710342,3.121066138827329,0.004055720999996737,-61.16878066,-6.116878066,Mn(HO)2
mp-777067,,,,,,,
mp-14704,4.7399,-2.836423005899122,2.616442380660387,0.0,-520.24324013,-6.84530579118421,Li6Y(BO3)3
mp-556741,6.588800000000001,-3.905281088904445,4.81820893565891,0.0,-107.01462161,-5.945256756111111,KNaThF6
mp-13986,2.495,-2.4386402700525927,5.1285455372308055,0.0,-80.7196333,-4.484424072222222,Li2PtF6
mp-917,2.2972,0.01113829166666728,2.162856322563271,0.0111382916666658,-40.839175,-6.8065291666666665,CaC2
mp-779997,,,,,,,
mp-763296,,,,,,,
mp-764878,,,,,,,
mp-21390,0.5091000000000001,-1.3140709749131945,6.330307226275935,0.005580084027777765,-184.11640309,-5.114344530277778,La2InCuSe5
mp-28450,5.6067,-2.752085050966118,2.2470606993742748,0.0,-167.91805416,-6.458386698461538,Li4P2O7
mp-7050,0.2375999999999996,-0.857798578671875,6.715113041583738,0.0,-61.28617225,-5.107181020833333,ZrTlCuSe3
mp-24614,6.6480999999999995,-1.6596394146486668,1.6302913689357597,0.0,-609.11233829,-5.075936152416667,BeH8(NF2)2
mp-651358,4.9204,-2.851878791032,3.946325032939199,0.0,-182.80444483,-4.57011112075,Ba2ErCl7
mp-23623,3.407,-2.5127860098774506,5.129207293506899,0.0,-493.54964094,-7.258082955,B5Pb2BrO9
mp-770155,1.2965999999999998,-2.4814119816203717,3.4636516216593067,0.15147479555554977,-256.81737742,-7.1338160394444445,Li3V3(BO5)2
mp-715581,,,,,,,
mp-868640,,,,,,,
mp-707744,2.7828,-1.421503800326207,2.3277919403882867,0.00896983991378697,-308.65867317,-5.321701261551724,K2TeH10(NO7)2
mp-768063,,,,,,,
mp-558320,0.5497000000000005,-3.3544668564404767,5.312788650963443,0.0,-347.37932652,-8.270936345714286,K3U3Si2O13
mp-15515,6.981,-3.852290512321111,3.8082241098621368,0.0,-401.36548063,-5.574520564305555,BaNaAlF6
mp-19470,3.3557999999999995,-2.100668640034842,3.7447055270445295,0.09136054073171085,-251.06274528,-6.123481592195122,Na4Ni7(PO4)6
mp-20337,2.7318,-2.85244710475,7.533522669151067,0.032540724312497105,-39.25952211,-7.851904422,ZrPbO3
mp-562207,,,,,,,
mp-571100,1.796,-1.0902548528160918,4.423021933055035,0.004941523437498763,-22.72560784,-2.84070098,CsAgBr2
mp-643735,1.1436,-0.8919017025458821,2.4319604574248985,0.0,-139.36951882,-4.099103494705882,H8Pd(NCl3)2
mp-25010,,,,,,,
mp-766332,3.3113,-1.6007867747222224,4.180138451121872,0.09441491666666657,-117.87612665,-3.274336851388889,BaCa2I6
mp-776758,2.9908,-2.6204760459887178,3.652706480047815,0.2762773484615382,-265.82930598,-5.112102038076923,Li2Fe3F8
mp-764217,,,,,,,
mp-553025,3.5770000000000004,-2.4366629571519995,5.113066244621767,0.0,-55.62875163,-5.562875162999999,CaBiClO2
mp-752407,3.8173999999999997,-3.0577654571590913,6.166374838140566,0.007973696363636762,-163.6073505,-7.4366977499999996,Dy2Ge2O7
mp-780814,,,,,,,
mp-28161,3.8178000000000005,-0.7714149966304277,2.565672103977232,0.0,-557.28751272,-6.966093909,Na3P6N11
mp-781050,1.2387000000000006,-1.9705278373333328,5.1616098928076655,0.04756564081251202,-116.0498827,-5.802494135,Li4CrSb(TeO6)2
mp-558298,2.9582999999999995,-1.7650662127173922,6.288329455322203,0.0,-127.41230697,-5.539665520434783,Zn3TeAs2Pb3O14
mp-655489,1.9500000000000006,-0.8150850329403408,6.452100654175794,0.04491394772727286,-37.13376428,-3.3757967527272728,Pb4SeBr6
mp-556178,3.9365000000000006,-2.910976565384615,3.7703844507667124,0.0,-361.8126594,-6.957935757692307,BaAl2(GeO4)2
mp-763199,2.1029,-2.6979287836736403,3.243245052450929,0.2503980249999991,-125.03820964,-5.209925401666667,LiMnF4
mp-769617,1.2759,-2.4383877877083324,3.989838307458997,0.02015516895833347,-166.04404057,-6.918501690416666,Li2VCrO4
mp-531130,2.1277999999999997,-1.6062218395192303,8.937453248370995,0.02540587851922993,-369.50743527,-5.684729773384615,TlBi25O39
mp-1700,3.3056,-1.5745513361899999,3.1928814632411577,0.021349755000000137,-14.84715069,-7.423575345,AlN
mp-720835,4.4617,-2.0419068787936934,2.171142598911647,0.01828543027026619,-458.52291686,-6.1962556332432435,Mg5H10(C2O9)2
mp-772476,,,,,,,
mp-24007,3.311,-1.6480096949739997,3.1713566366893775,0.0,-38.64689058,-3.8646890579999997,Rb2HBrO
mp-761344,,,,,,,
mp-772801,2.3293999999999997,-2.8333589447500005,9.400974158486902,0.05944474262499977,-70.62231606,-7.062231606,LuBiO3
mp-565326,,,,,,,
mp-770604,3.1875,-1.6004369156431881,2.1348821199505896,0.0882629734782654,-265.38060036,-5.769143486086957,Li2CoH8(CO5)2
mp-3312,1.142,-0.5081335074722908,4.796001709996627,0.0,-53.38796401,-3.8134260007142857,Cs(SbSe2)2
mp-997082,1.0986999999999996,-1.126465880625,9.98648739025233,0.038555392604163075,-40.31498476,-5.039373095,BiAuO2
mp-8586,4.546,-2.8606487700988885,3.362781803485,0.0,-129.10867011,-5.379527921249999,InBF4
mp-32476,,,,,,,
mp-849277,1.6395999999999997,-2.2320346382659784,2.7163692136148514,0.08272616367360452,-226.53932292,-6.2927589699999995,Li2CuP3(HO5)2
mp-20489,0.7991000000000001,-2.1653193400833333,7.396339069991457,0.0,-115.86265564,-5.793132782,SrPbO3
mp-768357,2.5743,-3.4956165337837826,4.221203941999457,0.03200272712837382,-321.9173059,-8.700467727027027,Ba2Ti11O24
mp-763054,,,,,,,
mp-566412,,,,,,,
mp-18429,2.4229,-1.1425273831093328,2.971430893357389,0.0,-226.98855609,-5.67471390225,KAg(NO3)2
mp-27915,2.9175,-2.1148341601999996,2.374685744449205,0.0,-100.10284999,-5.0051424995,K2BeO2
mp-698206,0.5102999999999999,-2.683328094375,5.88992135690787,0.0,-358.51791494,-7.4691232279166675,Ba5Re3O16
mp-31926,,,,,,,
mp-34140,1.5926999999999998,-1.8667854773809514,5.077257434462583,0.0235137897619051,-256.69328941,-6.11174498595238,Zn(FeO2)2
mp-6270,1.8199,-2.7511575849166663,6.705229273233172,0.0,-71.17696036,-7.117696036,Ba2LiReO6
mp-756933,0.46009999999999973,-2.69488288425,9.208139874879086,0.0021313879999986796,-161.72336411,-8.0861682055,TaTlO3
mp-697183,,,,,,,
mp-779236,,,,,,,
mp-29372,1.0868000000000002,-0.422891508672414,4.288325558861697,0.0,-121.53081102,-3.0382702755,Cs2GaSb2
mp-776912,,,,,,,
mp-31743,,,,,,,
mp-762543,,,,,,,
mp-705340,2.0707000000000004,-2.663482037732684,2.9396581650250155,0.05641347681818232,-316.61524577,-7.1958010402272725,LiVP2O7
mp-779185,,,,,,,
mp-780647,,,,,,,
mp-11175,2.7289000000000003,-1.0392218732482996,2.4972669271805175,0.0,-29.7481819,-4.249740271428571,LiZnPS4
mp-707536,3.5239,-1.5376674024412493,2.7527686308585313,0.0,-569.47809245,-5.0846258254464285,KHSeO4
mp-770700,2.8666,-3.1905345264236114,3.263786999568807,0.06466418260418116,-191.01815365,-7.959089735416666,Li2Ti3O7
mp-3417,5.1925,-3.124883105952381,2.60492094094146,0.013323884464279345,-216.86035054,-7.745012519285715,Ca(BO2)2
mp-18652,2.1729,-2.947602539772727,6.485332345174444,0.0,-149.77396588,-6.8079075399999995,Sr3HoRhO6
mp-778385,3.2394,-1.9352128458252347,2.2509078247491425,0.024178550703124913,-819.42150511,-6.401730508671875,B3H3SeO9
mp-782009,2.9651,-1.9423028243617022,4.359955751540328,0.09513496489361684,-375.96401741,-3.999617206489362,Ca9La5Br33
mp-762937,,,,,,,
mp-779873,,,,,,,
mp-776074,3.2663,-2.7313976754166664,3.6513407501206925,0.03007173733333879,-198.06575489,-6.602191829666666,CaGeO3
mp-8235,1.2096,-0.4841998466285709,2.011865178178868,0.0,-41.78351901,-4.178351901,K2SiP2
mp-542697,0.5314999999999999,-1.696000958214285,3.7656144415128607,0.0,-160.36050335,-5.727160833928571,Rb2RuO4
mp-997587,2.5344999999999995,-3.6621784252500005,6.188378136504679,0.0661225615937493,-319.23223374,-7.980805843500001,La7ScAl8O24
mp-559733,2.8711,-1.7146514343928942,3.124587870686338,0.030072000150376255,-250.44901876,-6.590763651578947,GdH7C2SO8
mp-557918,2.6828,-1.952378419250001,3.835350233349856,0.0,-129.30265176,-5.877393261818182,KGaAs2O7
mp-504987,,,,,,,
mp-23810,3.774,-2.2882890907849998,4.228677987405513,0.0,-685.08641699,-6.116843008839285,BaAsHO4
mp-28676,5.5878,-1.965289305264444,2.054361086542803,0.0,-194.81204437,-5.411445676944444,S2O5F2
mp-743898,,,,,,,
mp-781699,,,,,,,
mp-23386,1.6167000000000002,-0.6207376156249997,4.805949752066042,0.0,-211.31143242,-3.5218572069999996,Sn2SI2
mp-766625,0.6067,-1.950147532121212,3.2065614325139014,0.4625718814318427,-294.66365553,-6.696901262045455,LiFe2(BO3)2
mp-686077,2.369,-3.7733007494109185,7.134144304611928,0.06827046175288842,-754.53315214,-8.672794852183907,Er18Ti14O55
mp-853199,,,,,,,
mp-19081,2.7361000000000004,-2.1338749784358626,3.940360564494961,0.0,-178.32561282,-7.4302338675,MnMoO4
mp-558163,1.2799,-1.2592558496874995,4.97171222604639,0.07156318333334788,-95.02341593,-5.279078662777778,Pb(SeO3)2
mp-773544,,,,,,,
mp-766015,3.5238000000000005,-2.1939642319244443,4.537864915036547,0.02206628284722356,-196.5252946,-5.459035961111111,SbOF
mp-559734,2.5357,-3.6804568360016656,5.4043489859640985,0.024601303958345255,-129.90605109,-7.217002838333333,UOF4
mp-642650,5.3098,-1.674243526663016,1.463251067532608,0.015831450867620056,-64.67694827,-5.389745689166666,LiP(HO)2
mp-1019898,4.6632,-3.492156270595238,4.606952783529997,0.021599674722223128,-96.56978493,-8.0474820775,LaPO4
mp-16793,2.8506,-2.5756348487975544,4.3264796587310315,0.0,-289.59344061,-6.295509578478261,Be3Cd4Si3SeO12
mp-6867,4.3468,-2.8057679225628576,2.5232238037493735,0.0,-46.1345535,-6.590650500000001,KCaCO3F
mp-554948,4.253699999999999,-1.8387706416466667,3.6802823349042937,0.0,-50.40257425,-4.200214520833334,NaI(OF)2
mp-15951,8.3241,-3.5715468569044444,2.222774756906371,0.00037433777777806654,-51.88546111,-5.765051234444445,BeF2
mp-761339,,,,,,,
mp-556422,2.8047,-2.1211329272060007,2.7016201846937107,0.0,-114.8567523,-5.742837615,NbCl3O
mp-774456,3.9503999999999997,-1.626116708604445,2.5161097481458086,0.02284280592592225,-577.73427586,-5.349391443148148,InH11S2O13
mp-763149,3.2957,-3.0347928416703684,3.2483087712286633,0.0325688615000006,-115.30157513,-5.7650787565,LiMnF3