id,band_gap,formation_energy_per_atom,density,e_above_hull,energy,energy_per_atom,pretty_formula
mp-763784,0.9540000000000001,-2.9019885138930017,3.3604801108044096,0.06089496777777548,-51.51183292,-5.7235369911111125,LiMn2F6
mp-771067,,,,,,,
mp-27917,3.696,-3.387813794398147,3.0370399019557146,0.06158209157407146,-189.42129106,-7.015603372592592,Ca3SiO5
mp-767026,,,,,,,
mp-675625,3.0468,-1.500903304826,1.8748950011967782,0.011763612499996691,-58.60876813,-5.860876813,KNO3
mp-735586,2.2587,-1.2829684162997494,3.729478037667264,0.22414820737499408,-212.8274591,-5.3206864775,KFe2H(SeO3)4
mp-556438,3.4945,-3.0259250425092583,4.634017552811435,0.0,-131.40652439,-7.30036246611111,KNaSmNbO5
mp-560605,1.6581,-3.1609387740476187,7.024109321430934,0.0,-103.14529940000001,-7.367521385714285,LiLa4AuO8
mp-1000,1.5930000000000002,-1.7923372100000003,4.9378861159400005,0.0,-8.64694618,-4.32347309,BaTe
mp-562569,2.3503,-1.0719730291432097,4.014615348043591,0.0,-125.66819382,-4.488149779285714,CsPPbS4
mp-620325,0.08979999999999988,-1.7755589237878786,4.465834678297871,0.14615899583333206,-287.18661357,-6.526968490227272,CoCu2(BO3)2
mp-24456,2.2785,-1.5386345739916671,2.5316687494104295,0.04859176725959902,-242.75428814,-6.0688572035,SrH2N2O5
mp-850225,2.0733,-2.4433322229831917,3.9998389842034414,0.03574834617641365,-249.00665845,-7.323725248529412,FeP6(WO8)3
mp-28701,1.7828,-0.8677199277101293,2.8271456287617163,0.0,-131.21640232,-4.1005125725,CsSbS6
mp-776937,,,,,,,
mp-2371,1.0068,-0.23964394285714266,5.500925401658825,0.0,-23.45019209,-3.350027441428572,Ga2Te5
mp-19259,3.5419,-3.3023593832098763,3.5324503774271694,0.012287983935171276,-194.93285731,-7.219735455925926,Sr4Al6WO16
mp-778680,0.5772000000000002,-2.4601909345538067,3.1311374752476624,0.051989093533348914,-335.43115326,-7.454025627999999,Li5Mn8(BO3)8
mp-25785,,,,,,,
mp-775134,0.4824999999999999,-2.6207459922875374,3.317730273269543,0.032686902916664096,-182.16361959,-7.590150816249999,MnV3(PO4)4
mp-758899,2.1568,-2.4482303066609092,3.519309510946371,0.04421511868182204,-203.19439633,-4.618054462045454,Sb2OF8
mp-20027,0.4336000000000002,-0.5370093490476187,5.127712739268919,0.0,-41.81379362,-6.9689656033333325,FeP2
mp-776205,1.2332999999999998,-2.4516404252019983,10.613436833517683,0.09485290475000063,-104.64636302,-10.464636302,Hf2N2O
mp-778102,6.661499999999998,-4.3321889077547615,4.474294600630002,0.03196617000000046,-183.25247404,-6.544731215714287,BaYF5
mp-24988,,,,,,,
mp-31362,5.1851,-2.3544609587893333,2.3500628667382215,0.002744501999999649,-82.94091824,-4.147045912,Na3YCl6
mp-7786,1.6987,-0.7623794956968398,3.866354092232408,0.0,-24.71327909,-4.118879848333333,CsCu3S2
mp-624,2.6454000000000004,-0.17040082928571415,3.5524866865183347,0.0,-91.85531543,-6.5610939592857145,B6As
mp-868609,,,,,,,
mp-555650,4.1926000000000005,-2.4382524078089585,4.86089763279267,0.0,-295.07533214,-6.147402752916666,NdSeClO3
mp-7939,0.5134999999999996,-1.0050964586718747,5.44061750731909,0.0,-44.85147367,-5.60643420875,NaNbSe2
mp-25160,,,,,,,
mp-761573,4.1004,-2.651197939961646,2.7932488496440793,0.055445247833330484,-199.35282461,-6.6450941536666654,Li4Mn(PO4)2
mp-504506,3.9721,-2.144245236458333,3.5757338966089813,0.0,-78.05775467,-6.504812889166666,RbIn(MoO4)2
mp-629082,1.2879999999999998,-1.025437592648333,5.297195654624575,0.008825760416666384,-1019.08686819,-7.076992140208334,Ba3MoN4
mp-752677,3.2150000000000003,-2.0131575028333337,4.548797069964433,0.08793652299999978,-83.78815425,-4.1894077125,Ba2YBr7
mp-771600,,,,,,,
mp-762656,,,,,,,
mp-6456,3.386,-2.6248701750520835,4.082558280337775,0.0,-235.42011307,-7.3568785334375,LiNbGeO5
mp-676643,0.40669999999999984,-1.8778033508925,5.324911272370506,0.053485262499999735,-41.44435477,-5.18054434625,Ba2NF
mp-776213,2.0237,-2.5417292764519983,10.388895776022984,0.004764053500000642,-422.18900613,-10.55472515325,Hf2N2O
mp-704210,1.7412,-2.3607568346645014,2.968475313916937,0.020774233868379174,-936.89826953,-7.097714163106061,Mo(PO4)2
mp-777453,3.1429,-2.929358322663334,2.7654186688409244,0.06076657156249965,-165.06978563,-5.1584308009375,LiVF6
mp-759766,1.8876,-1.6055591511858982,8.125298210515616,0.0980632732692337,-373.78209825,-5.750493819230769,Bi25BO39
mp-758289,1.6210999999999998,-3.4579769019499995,8.344760687338491,0.05803133779999925,-727.46396153,-9.699519487066668,Th4Ta18O53
mp-567722,1.9854000000000005,-1.3610022906010522,3.3851717409170528,0.0,-264.75123741,-6.967137826578948,Ca7NbSi2N9
mp-559062,5.2363,-2.893546401075238,2.3340151522088743,0.0,-140.86957768,-5.869565736666666,KP(OF)2
mp-706608,6.622000000000001,-2.0052339788746028,1.9943389375668092,0.00958849150793828,-193.79018857,-5.383060793611112,KPH3O3F
mp-18002,3.9144,-2.2445929822777786,3.028474980897426,0.0,-194.55471141,-5.4042975391666666,KLi3GeO4
mp-763304,,,,,,,
mp-554724,1.7068000000000003,-0.40222315985119095,2.76272025883586,0.0,-165.26134888,-4.590593024444446,CuP4S3I
mp-24818,4.8942999999999985,-0.310025456505333,0.7192701939160517,0.006087046666666929,-67.67069194,-3.383534597,LiBeH3
mp-557997,4.2341,-2.3173271362187498,3.7424643856106607,0.0,-119.2760252,-5.96380126,CaSeO3
mp-561179,2.2566,-2.172871458333334,4.667922760730401,0.0,-123.95886833,-5.164952847083334,Ba2CuIO2
mp-756919,3.6575,-2.467396398076924,3.2409416613674304,0.0,-160.29836159,-6.1653215996153845,Mg3(AsO4)2
mp-29104,2.5869999999999997,-2.988739547884616,4.379153740366599,0.0,-396.09207041,-7.6171552001923075,Ti3Zn2O8
mp-9306,0.7345999999999999,-0.7177933866186663,4.587367227179997,0.0,-24.13233442,-4.826466883999999,Sr2ZnN2
mp-771298,0.5522,-2.4982109948273803,3.1880893674010577,2.2404179472500383,-284.65529887,-7.116382471750001,Li4V3Cr2Co(PO4)6
mp-778460,4.2410000000000005,-2.5625723082780607,4.3503878127237465,0.05573482330357127,-722.24874183,-6.448649480625,Li3Bi(PO4)2
mp-770914,,,,,,,
mp-1443,3.1504,-2.7344045513200004,4.472517385943183,0.0,-106.83947215,-4.856339643181818,Sn3F8
mp-41283,0.9548000000000004,-3.197958608311517,7.18481948290901,0.11678990716666783,-83.64719043,-8.364719043,BaLaTaMnO6
mp-868359,,,,,,,
mp-6721,0.39899999999999997,-2.542492632651515,5.046032957569695,0.0,-139.38633499,-6.335742499545455,Sr3LiRuO6
mp-5986,1.7322000000000002,-3.4982955907499997,5.748582799489903,0.00320737600000065,-40.04249803,-8.008499605999999,BaTiO3
mp-18997,3.4115,-2.6443614183361808,3.321378233475882,0.0,-201.18502735,-7.185179548214286,LiMnPO4
mp-622930,0.4417,-2.3157258717934783,6.335366137312035,0.02413925554347429,-265.28266369,-5.767014428043479,Ba4In6O13
mp-3196,3.4559,-3.06289884675,7.258699315211588,0.033540619999978816,-143.39089508,-7.1695447539999995,NdGaO3
mp-780049,3.2023,-3.4217291508796297,8.556759107178769,0.021968981111109898,-521.15944492,-9.651100831851853,LuTa7O19
mp-558934,1.1793,-0.5993152222353333,8.720468252450397,0.004574956499999504,-112.8837554,-1.8813959233333333,Hg3ClO
mp-29204,3.2238,-1.2160090882142864,1.786556293529074,0.0,-142.0723944,-5.464322861538461,P4(S2O)3
mp-769550,0.4141000000000004,-0.9222197531623428,4.217941050054884,1.1260545743650816,-246.01864365,-5.85758675357143,Li2Mn5(FeO6)2
mp-9915,1.1646999999999998,-0.5851217500793648,1.9947325488118244,0.0,-25.63397366,-4.272328943333333,LiBeP
mp-755887,2.4295,-3.0961487890000017,5.183252576002432,0.002850751222220893,-146.17761343,-7.308880671500001,La2S2O
mp-763520,,,,,,,
mp-19398,2.0861,-1.4790207288888892,3.878679829200381,0.23826787261408636,-217.50954809,-6.041931891388888,FeAsO4
mp-554264,2.3736999999999995,-1.5989421762714295,3.4966278883094843,0.0,-528.88072165,-5.2888072164999995,Ba3Tb2(PS4)4
mp-18532,2.1575,-1.4620189495535725,3.893323559285705,0.0,-261.27814317,-5.443294649375002,HoPS4
mp-554826,5.1502,-3.5894973902328564,5.184756140729291,0.0,-221.32323387,-7.904401209642858,Pr3Si2ClO8
mp-706579,4.4839,-1.4505814855039578,2.9169928343631435,0.003672773541659957,-242.8096101,-5.0585335437499985,KH3(SeO3)2
mp-557807,2.1812,-1.2682152644051723,4.8425956447384655,0.0,-89.96281732,-3.7484507216666665,CsK2AuO2
mp-762793,,,,,,,
mp-27608,1.2806999999999995,-2.5813786973958344,4.084390203784389,0.0,-78.79715504,-6.566429586666668,Be4TeO7
mp-22449,0.3111000000000001,-0.19407716062053595,4.70524571937478,0.017284128531251497,-81.18740519,-4.0593702595000005,InCu(PSe3)2
mp-769641,,,,,,,
mp-778356,,,,,,,
mp-556761,3.996,-2.7502896839647626,4.786248545502529,0.0,-267.05659659,-6.3584903950000005,Ba5As3ClO12
mp-40204,3.1569000000000003,-2.96449202852,5.392388095168984,0.0583053476250015,-55.37474184,-5.537474184,KZrTl2OF5
mp-626506,2.7884,-1.53927481829,1.968568563533036,0.07205450833333328,-26.83089918,-4.47181653,NaHO
mp-752414,3.3006,-3.8885963373437487,6.650904753152897,0.0,-278.00353233,-8.6876103853125,Tb2TiO5
mp-566867,,,,,,,
mp-760319,2.5488,-1.7275870136492315,7.707384039617763,0.058507270192307274,-292.12368597,-5.617763191730769,Bi5O7F
mp-769542,0.2356999999999998,-1.9189384798214288,2.881050078517285,0.14600194352678386,-370.13544448,-6.60956150857143,Na5Cr2As(CO4)4
mp-782705,,,,,,,
mp-669375,2.8124,-3.740516060195476,6.4471945055678725,0.003478360200897868,-275.38003212,-9.835001147142858,Gd3B2(O2F)3
mp-767794,,,,,,,
mp-752983,2.2668000000000004,-3.7908150364583335,5.995120335448222,0.04729198531250845,-224.67720194,-9.361550080833334,CeZr7O16
mp-753755,2.143,-1.8342454151487504,8.037448796874914,0.03543797812500227,-89.47284894,-5.59205305875,Bi3O4F
mp-769500,0.9376,-2.1245153661760554,2.618987870296905,0.0695999131818219,-306.08984926,-6.956587483181818,NaMnPCO7
mp-4618,3.6361,-1.8112933292633928,3.656519848409308,0.0,-140.47477921,-5.016956400357143,Rb2SeO4
mp-28912,1.6256000000000002,-0.7524091044310346,4.556818576771028,0.004102066499998891,-82.34486137,-4.1172430685000005,MnInBr3
mp-28075,3.227,-3.070930573583333,2.8954664171830298,0.0,-66.87760608,-7.430845120000002,K2Ti2O5
mp-686909,,,,,,,
mp-755776,2.531,-2.254218331111111,3.792888432788388,0.0005223222222179301,-93.23230759999998,-5.179572644444446,Rb4SiO4
mp-554164,4.2923,-2.6240719190049613,2.7930421984958915,0.0,-305.25550175,-6.359489619791668,KLiZnP2O7
mp-645962,4.1737,-3.168594087564814,4.096401162929284,0.0,-740.9503980000001,-8.232782199999999,La4B14O27
mp-540635,2.7734,-2.3640695325892858,4.623335491504603,0.0,-182.14352675,-6.505125955357142,BaSn(GeO3)3
mp-768490,4.1958,-1.986997957757352,4.141287606389007,0.005272672500000297,-411.67501307,-6.054044309852941,Bi2(SO4)3
mp-775060,,,,,,,
mp-763151,,,,,,,
mp-764301,,,,,,,
mp-673071,3.7115,-2.5459035211855165,3.4579285672376168,0.03751698873611176,-157.81442589,-6.57560107875,Li2SnP2O7
mp-558431,0.6765000000000001,-2.3945301040093527,2.8971016001541057,0.01867065303571369,-375.92959113,-6.7130284130357145,LiCu(PO3)3
mp-629443,0.2260999999999997,-1.5547129776041668,3.652472600595996,0.0,-45.0570641,-5.6321330125,Li2EuGeS4
mp-776201,0.9216000000000002,-2.256419896701999,5.15410615753483,0.09429812475000077,-194.11244235,-9.7056221175,Zr2N2O
mp-558229,0.7225999999999999,-2.3556057658405165,4.842963635448619,0.0,-367.31889146,-6.333084335517241,La10S19
mp-998605,2.3804,-1.817052519456,3.5477796583690715,0.038125575000000016,-17.53993915,-3.50798783,RbPbCl3
mp-774349,2.837,-2.4377489531420875,3.273972482326548,0.020483915634910588,-251.87316324,-6.9964767566666675,Li6MnFe5(BO3)6
mp-2892,3.0973,-3.5221335064285713,6.612161608935463,0.0,-212.37141468,-7.584693381428571,BaNd2O4
mp-541843,,,,,,,
mp-758844,0.8529999999999998,-2.3305228819444443,3.1375793665677807,0.09091310805555786,-425.65386958,-5.911859299722222,Li3CuSiO4
mp-647096,1.0476,-2.328707033107858,6.404048963039633,0.0,-307.60303096,-10.985822534285717,Gd3S3N
mp-540123,,,,,,,
mp-780505,,,,,,,
mp-721586,5.0579,-2.3063695077482347,2.993513148925607,0.01506069676470556,-421.51110996,-6.198692793529411,BaSi2(H3O4)2
mp-677103,6.6663999999999985,-2.538103977125,3.156557189261569,0.0017271900000004337,-34.42757382,-4.3034467275,RbHF2
mp-565430,,,,,,,
mp-570985,1.9049,-0.2054052876851855,3.1719119561385813,0.0002824353148156433,-406.64621836,-7.530485525185185,SiC
mp-868328,,,,,,,
mp-19533,,,,,,,
mp-27210,2.7665,-2.5196060045433337,5.188858651746283,0.0,-96.56809422,-4.0236705925,RbTlF4
mp-759825,2.5742000000000003,-2.1965983841466667,8.349340019095928,0.03530448333333425,-64.56970854,-5.380809045,BiOF
mp-765787,,,,,,,
mp-850511,1.8934,-1.3135988210416656,3.2930273777040844,0.758416740625,-342.25513784,-5.34773652875,LiFeO2
mp-772898,3.2132,-2.8292817807499997,4.8159300940931775,0.02766720950000412,-269.25656848,-6.731414212000001,AlGaO3
mp-850229,0.8461000000000001,-2.4078094365276947,2.9767314133556217,0.06953219366665575,-345.93627075,-6.918725415,LiV2P4(HO8)2
mp-850098,,,,,,,
mp-557154,2.7914,-2.2209241198437493,3.8181064810548686,0.01077095890625035,-347.44544547,-5.42883508546875,NaGaO2
mp-540996,3.9956,-2.983382553072916,5.238725979929557,0.0,-244.64173300000002,-7.64505415625,NdGeBO5
mp-756086,1.5787000000000002,-1.2656775010833337,2.9532968630984686,0.09579892250000023,-79.95953025,-3.9979765125,Li5BiS4
mp-22303,2.261,-1.3271605088392855,3.1520061334136034,0.0,-50.80475822,-3.6289113014285714,Rb3InS3
mp-766853,,,,,,,
mp-6122,3.73,-3.02261405125,6.4955063197096665,0.0,-68.43521778,-6.8435217779999995,Ba2NdSbO6
mp-3782,3.1591,-2.6155075517499995,5.910435774006769,0.0,-276.41512843,-6.910378210749999,Nd3Sb5O12
mp-680153,2.3594,-0.5904789933333334,5.071449532021467,0.0015273449999999578,-120.23881569,-1.90855263,CdI2
mp-555112,1.5229,-2.8867921083859254,3.0200675249296083,0.0,-91.92464591,-5.106924772777777,Li2CrF6
mp-770729,2.5833,-2.1551975671354167,2.9373234716417707,0.4260755901562501,-380.19168791,-5.94049512359375,Li2AlFeO4
mp-10973,1.0807000000000002,-0.8055981789635419,4.169716050649226,0.0,-184.18768535,-3.837243444791667,K2Ga3CuSe6
mp-780237,0.7739000000000003,-2.0766061441964285,3.8723105996931366,0.0785155104687485,-192.0839647,-6.002623896875,Li3Cu3(PO4)2
mp-2352,1.8735,-1.4503121337499998,2.3503495233816274,0.0,-11.22104788,-3.740349293333333,Na2O
mp-27293,1.8287,-0.7626958913636366,6.557812116987503,0.00985331272727219,-55.92290949,-2.5419504313636363,Tl4HgBr6
mp-774763,2.144,-2.7183291211836735,3.3410229691777302,0.09323644152381316,-261.46036335,-7.4702960957142865,Ti3Sb2(PO4)6
mp-771602,,,,,,,
mp-559676,0.4176000000000002,-0.7633636040625005,5.060457348952796,0.014676900000000437,-17.98402411,-4.4960060275,SnS
mp-769786,,,,,,,
mp-8794,2.1728,-2.6457213253250003,4.207669846283385,0.0,-126.83709279,-6.3418546395,K4UO5
mp-603612,2.7679,-2.058199469437704,2.2458995526521566,0.02574851616073559,-368.38854038,-6.5783667925,TiP4H8N2O13
mp-25639,,,,,,,
mp-868350,,,,,,,
mp-759028,3.2481,-2.4378514349725267,3.760754184634158,0.04937490980768988,-342.16339114,-6.5800652142307685,Li3Sb3(PO4)4
mp-565319,,,,,,,
mp-772779,2.9136,-1.7607415055208326,3.2611079087586234,0.0337459097222208,-201.24780821,-5.5902168947222215,Ca(SeO3)2
mp-6113,3.1668,-2.570273586927083,3.6006220625790024,0.0,-225.01199917,-7.0316249740625,LiTiAsO5
mp-13596,5.695,-3.6800757875711114,3.410730019708978,0.0010822849999989612,-104.82496283,-5.8236090461111125,K2ZrF6
mp-775047,,,,,,,
mp-706632,2.6678,-0.6494964079666664,2.5512641131349607,0.0,-464.78245532,-4.841483909583333,H15RhBr3N5
mp-771532,,,,,,,
mp-622197,2.1952,-2.055040054977335,2.912913586818834,0.0,-181.46125271,-5.49882583969697,Cs2PtS6(O3F)6
mp-763354,,,,,,,
mp-19034,3.3085,-2.7675988030769227,3.354741708616402,0.0,-179.07101656,-6.887346790769231,Mg3V2O8
mp-18100,1.5871000000000002,-0.8483303277604165,3.3632896731103923,0.0,-108.60939309999999,-3.620313103333333,Na6Ge2Se7
mp-559142,5.2922,-2.7181338088059532,2.304504558785086,0.0,-532.00979539,-6.650122442374999,KLi(PO3)2
mp-707977,5.5406,-3.1206490650396828,1.5537629040024623,0.01033868055555498,-269.19250774,-7.477569659444446,AlPO4
mp-777595,3.395,-2.3954719152377777,2.848818766864601,0.5251168304166693,-55.40050384,-4.616708653333333,LiFeF4
mp-772160,2.1847,-1.5250579852380952,5.107367157634156,0.0914312125000003,-49.84187916,-3.5601342257142856,SrLaI5
mp-761619,,,,,,,
mp-560973,5.4387,-3.2496515049074066,1.7653857256087444,0.02834616425925773,-425.94616993,-7.887892035740742,SiO2
mp-565714,,,,,,,
mp-556041,4.5238,-3.2518665830155555,5.272206510538316,0.37030497277778096,-45.24386351,-5.027095945555555,Ba2NiF6
mp-757551,0.2523999999999997,-2.4750150104212447,3.5344381336352724,0.05912867056089155,-514.91350415,-6.601455181410255,Li3Sn3(PO4)4
mp-769728,,,,,,,
mp-556834,0.5768,-1.623218731290001,2.9347522951356653,0.0,-87.55011828,-4.377505913999999,RuCl(OF3)2
mp-772378,,,,,,,
mp-18893,1.4377,-2.4303668201419626,3.95765227633466,0.0,-92.00158684,-7.077045141538463,Ca2Mn3O8
mp-27888,3.8979,-3.3961987616666662,5.758365768908707,0.0034754762500082137,-104.98032241,-8.748360200833334,Zr3GeO8
mp-754065,0.5166,-1.6312464141666665,7.137923834149013,0.0,-48.71683873,-5.412982081111112,Hg(SbO3)2
mp-15541,5.1362000000000005,-3.1326124863645823,2.432770694964677,0.0,-733.1781363,-7.637272253125,KNa2Si12(BO10)3
mp-867943,2.6315,-0.3664394011672724,3.611612979719304,0.0,-167.49197403,-3.8066357734090914,Na3H7Os
mp-866695,2.3069,-0.9383931775548214,4.118123876606699,0.0,-122.67158297,-4.381127963214285,ReTeSeCl4
mp-18691,0.2661,-0.63483811326389,4.791425604442087,0.0,-77.99544495,-4.333080275,Rb2Ni3Se4
mp-755382,2.1209,-1.6284324207499998,7.542577947645925,0.08608267181818617,-57.78914895,-5.778914895,BiSbO3
mp-626151,4.0477,-3.022682853613333,4.455577253584294,0.0,-60.57574734,-7.5719684175,YHO2
mp-769266,4.1056,-3.4854933207692302,5.755896063228913,0.011183253571447338,-435.96271874,-8.383898437307693,Ca3Ta2O8
mp-767648,,,,,,,
mp-768143,3.2705,-2.2225007193019484,2.85981943364676,0.03855307666666974,-149.47391302,-6.794268773636364,NaGePCO7
mp-762888,,,,,,,
mp-775790,,,,,,,
mp-769718,,,,,,,
mp-757256,3.2694,-1.1836850486320003,4.099508733330777,0.01219534633333641,-137.97404972,-4.599134990666667,ZnH4(IO4)2
mp-772282,1.9473000000000005,-1.435757391931819,5.220421035490942,0.002705690312494013,-113.17135025,-5.144152284090909,Sb4I2O5
mp-25540,,,,,,,
mp-777038,,,,,,,
mp-17308,4.637600000000001,-3.667937414204546,5.917717482531924,0.0,-360.72993339,-8.198407577045455,Tb2Si2O7
mp-767356,,,,,,,
mp-771433,,,,,,,
mp-27288,0.9089,-1.6609873162033333,3.4170080134883714,0.0,-136.81320025,-3.8003666736111112,RuXeF7
mp-989526,3.8235,-2.7492700366002074,4.727779168168661,0.0,-41.27885778,-4.127885778,Cs2KTlF6
mp-773146,1.1588999999999992,-2.2985773158630955,3.3791184165372345,0.059290007812503376,-194.80647456,-6.08770233,Li2CuPO4
mp-35759,5.0863999999999985,-2.4191065547276187,3.3458550250997763,0.3467084007142862,-60.09922785,-4.2928019892857145,Li2NiF4
mp-504353,4.6591,-2.5322117417195766,3.1577880608627287,0.0,-248.43772572,-6.901047936666667,LiSb(PO3)4
mp-779240,,,,,,,
mp-558102,4.7069,-2.9872598767685186,2.4614208524195966,0.0,-123.95953869,-6.886641038333334,KLiSi2O5
mp-31663,,,,,,,
mp-1990,1.431,-0.6270445782500002,3.047914520023678,0.0,-137.94341409,-3.4485853522500003,Mg3As2
mp-7475,1.0341999999999991,-2.590559444875,4.935180652027613,0.0,-132.97512414,-6.648756207000001,La2S3
mp-5391,4.497299999999999,-3.181551216666666,3.3566989958155853,0.050154628571415394,-191.48281152,-6.838671840000001,Mg2SiO4
mp-772798,3.36,-3.5374295290476194,5.628473787979283,0.053664843095249985,-321.21392171,-7.647950516904763,BaLa2O4
mp-29198,1.0192,-0.5069471607291669,4.144325793832532,0.0,-121.82196638,-3.3839435105555555,Na5AuSe12
mp-769228,1.6246000000000005,-1.8848405617988504,4.519869395392356,0.013942744500000435,-93.54830802,-4.677415400999999,Cs5YO4
mp-849433,3.9344,-2.8642257989847617,2.8381035522484312,0.0,-318.62909466,-5.689805261785715,SrTiH4(OF3)2
mp-558199,1.6216999999999997,-0.5061028722372222,3.472811623846876,0.004200247361112908,-155.84394135,-4.328998370833333,CuAs4S3Cl
mp-768140,3.5024,-2.275914560193453,3.897800177259955,0.0,-156.36310215,-6.51512925625,Na2BiPCO7
mp-9228,2.546,-1.05513109171875,6.4283004765536615,0.003032081999999825,-87.24876945,-4.3624384725,HgSeO3