id,band_gap,formation_energy_per_atom,density,e_above_hull,energy,energy_per_atom,pretty_formula
mp-744226,2.6927000000000003,-1.4478359014115507,2.00927089674705,0.05566538597734549,-809.98570967,-5.785612211928571,CoP3H16N4O11
mp-7137,4.5474,-3.2793441510416663,6.371288605027492,0.0,-112.60798598,-7.03799912375,LiTbO2
mp-767483,,,,,,,
mp-549127,1.3985,-2.478170732282499,8.278940253347677,0.0,-50.41712034,-6.3021400425,HoBi2ClO4
mp-25107,,,,,,,
mp-12161,0.2471000000000001,-1.286896352815758,2.720543681200229,0.09143213901308833,-134.98402433,-6.135637469545455,K2SrCu(NO2)6
mp-772694,,,,,,,
mp-17008,3.2938,-2.408547449083333,3.958689862874198,0.010153299266666416,-179.53498390000001,-5.984499463333332,CaTeO3
mp-757094,3.6948,-3.92375386828125,6.261190112059146,0.07546685507812434,-144.89511454,-9.05594465875,La2HfO5
mp-554643,4.5798,-2.532781695699545,3.06853138300547,0.0,-235.7107931,-5.357063479545454,K2SbSO4F3
mp-561699,,,,,,,
mp-561330,,,,,,,
mp-567391,1.1709999999999998,-1.8943845742016063,7.469278899155579,0.0,-182.08503664,-6.503037022857143,Dy3Se3N
mp-704727,,,,,,,
mp-570607,0.6639999999999997,-1.2197656390625005,5.669082307581843,0.0,-298.87922260000005,-4.669987853125,Dy5C2I9
mp-753515,2.3861,-1.8678560276487497,5.536764686839967,0.06372344710937572,-91.46611797,-5.716632373125,Sb3O4F
mp-573763,1.7740000000000002,-0.9915977644540228,3.9891034677521584,0.0,-31.63559587,-2.636299655833333,Cs2Te
mp-8751,2.7465,-1.398710187430556,2.852129977040034,0.0,-21.11715471,-3.5195257850000004,RbLiS
mp-32117,,,,,,,
mp-2874,2.7008,-2.695311088068182,4.8350078619133265,0.004590683863642475,-75.71822902,-6.883475365454545,In2Si2O7
mp-6304,1.2998999999999996,-2.6395012715833333,6.056970746198562,0.026479070124999282,-62.40505754,-6.240505754,Sr2GaSbO6
mp-775821,0.9763000000000002,-2.1421193242019982,4.339995480997128,0.0560785500119998,-373.21049716,-9.330262429,Ti2N2O
mp-766155,,,,,,,
mp-555271,4.3543,-3.2727310680491666,4.764807769936549,0.0030212631250003947,-113.65467520000001,-4.735611466666667,Ba2Zn2ClF7
mp-559228,2.1770000000000005,-1.6688282657142859,3.891111697827685,0.0,-299.93608194,-5.356001463214286,Rb2HfS4
mp-27483,1.66,-1.8940628212083328,4.665816599637831,0.0,-382.63645819,-4.7829557273750005,Li5TlO4
mp-850361,,,,,,,
mp-25556,,,,,,,
mp-25536,,,,,,,
mp-764789,1.0545000000000002,-2.6736626928881444,3.5623112736252254,0.08686602392857079,-176.37436085,-6.299084316071428,LiMn2OF3
mp-17918,2.3078000000000003,-2.5518520942818754,4.405679610972396,0.0,-166.02049305,-5.1881404078125,Ba2SnS3F2
mp-651301,3.5954,-2.1063865393749985,3.8533282581934634,0.004852427187501007,-311.74055695,-6.494594936458332,NaIn(MoO4)2
mp-867730,2.386,-1.911847231602011,5.382433139780552,0.0,-59.98235904,-4.99852992,Cs2SnO3
mp-549720,0.8338999999999999,-1.4361978028125009,5.133429311502063,0.0,-46.2795597,-5.7849449625,NbI2O
mp-626411,2.7772,-1.6220682020871426,4.1669787805656915,8.542142857059787e-06,-146.24947014,-5.2231953621428575,In(HO)3
mp-849453,,,,,,,
mp-773129,2.7049000000000003,-2.5243437038822742,3.668726060888205,0.016567407916657118,-490.07817077,-6.8066412606944455,LiSn2(PO4)3
mp-762813,,,,,,,
mp-983565,1.4842000000000004,-0.10990316950520818,5.591577873212386,0.012281518888889842,-36.42006589,-4.55250823625,CuBSe2
mp-550111,1.2800999999999996,-2.3254905822916667,8.026407435740099,0.0,-49.71402831,-6.21425353875,SmBi2BrO4
mp-754368,1.4921000000000002,-1.866765590625,4.563710982790905,0.0007179428750010429,-42.79923178,-5.3499039725,NaSbO2
mp-752422,1.0432,-0.5917346142811112,3.591926256990717,0.060977719222218514,-52.79237612,-2.9329097844444445,IClO
mp-555214,1.5972999999999995,-1.1294689773317304,4.008096865949621,0.014033939587912771,-181.77609909,-3.4956942132692315,ZnS
mp-25596,,,,,,,
mp-11166,4.776,-2.7235605532662497,4.7013124376936215,0.0,-99.54356471,-6.221472794375,BaZnCO3F2
mp-866132,0.4167000000000001,-0.3207781337500002,5.587378870258553,0.0,-10.39821105,-2.5995527625,Na2TlSb
mp-17817,0.7612000000000001,-0.7955388349206353,3.1272730784218568,0.0,-176.1856177,-4.894044936111111,Ca3(GeP2)2
mp-773293,,,,,,,
mp-676694,2.9835000000000003,-2.90603223675,4.397739617163793,0.002662739333333164,-471.32862580000005,-7.855477096666666,LiNbO3
mp-29226,2.6397000000000004,-2.7486340637239586,4.083633127202644,0.0,-300.89964637,-6.268742632708333,Ca3Ga4O9
mp-755991,1.0812,-0.1717924580555555,4.50925489652424,0.07607613260416635,-89.93148888,-3.74714537,AgBrO4
mp-561262,,,,,,,
mp-32502,2.219,-2.649838694219576,2.3430754514741348,0.017516895194445326,-259.21500918,-7.200416921666666,LiV(PO3)4
mp-720294,4.1749,-1.1264937365017245,1.645207261900142,0.0,-596.87664467,-5.145488316120691,AsH18N3O7
mp-650228,3.645,-2.1281424317083317,3.925515237887832,0.0,-311.97754355,-6.499532157291667,KIn(MoO4)2
mp-554694,,,,,,,
mp-763374,,,,,,,
mp-568318,0.4180999999999999,-0.5720825402999998,5.607998448401804,0.0,-505.16983437,-5.0516983437,KTaTe3
mp-772319,0.6766000000000001,-1.2710475472023808,4.831926183016631,0.028559990119047637,-144.93773262,-5.176347593571427,Li4Co3Ni5O16
mp-541000,1.4708,-0.2705921961785712,3.3696546412215955,0.0,-233.45230499,-4.168791160535714,K3As11
mp-559895,0.3742000000000001,-1.9243618365909088,5.775081340046407,0.00257731156250518,-252.92853154,-5.748375716818183,ErCuTe2BrO6
mp-558763,1.8143,-0.9248572110321966,6.406219837063174,0.01223251022727112,-388.86345778,-4.418902929318182,Ag2Hg(SeO3)2
mp-769855,0.7880000000000003,-2.429544432083333,5.024541748491162,0.22456236600000512,-136.85698916,-6.842849458000001,SrCrO3
mp-559408,,,,,,,
mp-556017,5.0734,-3.568360316414835,5.0743022163014055,0.0,-220.50792311,-8.48107396576923,Th2P2O9
mp-30543,0.4418000000000002,-0.4366964790277781,6.001920394385409,0.029864424444443927,-159.76221874,-3.3283795570833337,RbAg7S4
mp-765013,,,,,,,
mp-554602,1.6981000000000002,-1.3592238192072728,3.0623812253175977,0.0006468533420651568,-114.9686506,-5.225847754545455,Rb2PdN2(ClO2)2
mp-14536,3.9,-2.508098075295918,3.2628015174721896,0.0012710722420692375,-1018.9690365,-6.0652918839285705,KNa2Zn3(PO4)3
mp-989638,0.4983999999999993,-0.6016818464279993,4.244448438118509,0.0,-78.45181688,-7.845181687999999,CaTcN3
mp-1019804,6.2377,-2.2619947533402773,2.5039100737769484,0.0,-303.38012045,-6.320419176041668,KB(SO4)2
mp-19455,1.3558,-2.129638724269196,4.955943125981305,0.004236254166666953,-89.11197136,-7.425997613333332,MnMoO4
mp-24446,5.1906,-1.8778152065039588,2.1053633349690912,0.042211342732676016,-350.93255656,-5.48332119625,LiH2SO4
mp-3901,3.6582,-3.5277101916666664,6.0163765173892765,0.0,-106.03674255,-8.8363952125,NdNbO4
mp-556975,1.6179000000000006,-1.9366067234895836,4.769914621041036,0.0,-142.75447341,-5.94810305875,Nd3CuSiS7
mp-13753,5.379,-2.831601524184525,3.309921502106812,0.0,-591.42183532,-7.3927729415,SmP5O14
mp-27925,6.9711,-4.249569923008,5.444747342042204,5.141075000025808e-05,-501.47838971,-6.268479871375001,KEr2F7
mp-762399,,,,,,,
mp-28994,0.6878,-0.5898334865833337,2.2243534363438098,0.0,-23.89217332,-2.986521665,KLi2As
mp-555257,3.6219,-2.7262080207738086,5.0047174671082875,0.0007614492500014336,-130.45913419,-6.522956709499999,Mg2BiPO6
mp-561067,4.0999,-3.0029259935140002,3.4268223606196653,0.0,-47.36032487,-4.736032487,KRb2FeF6
mp-2963,4.3446,-3.464016412261905,2.8428470496904765,0.0007571920238191865,-608.65669387,-7.245913022261906,CaAl2O4
mp-773621,,,,,,,
mp-772009,,,,,,,
mp-634378,5.4874,-2.031263250249286,2.3078145421699072,0.0,-156.90581664,-5.603779165714286,NaHSO4
mp-14099,1.6133000000000002,-2.0192625653806666,5.658775899767809,0.05356457599999986,-18.44995289,-3.689990578,ZnAgF3
mp-770698,2.9334,-2.1654142554166675,2.9617616666611988,0.4158589018749996,-190.42277798,-5.950711811875,Li2AlFeO4
mp-756550,3.5753000000000004,-2.7916243493055557,6.866210727357986,0.08037214708333984,-171.46389771,-7.14432907125,TmAsO4
mp-540957,1.3886,-0.8205205662068964,4.366848810405493,0.0,-21.46284516,-2.384760573333333,Cs2TeI6
mp-676262,0.9695,-2.6970142722499992,9.246677280104304,0.0,-323.53198374,-8.0882995935,TaTlO3
mp-762717,,,,,,,
mp-601806,,,,,,,
mp-559113,4.3509,-1.2460500865713635,1.7515601430832994,0.02444801367897753,-651.95082904,-5.926825718545455,ScH24C3S3(N3O5)3
mp-510273,2.3884,-1.8649782888577588,4.714323912540858,0.0,-41.9512921,-5.2439115125,CsSbO2
mp-554894,4.5209,-1.7372254053137897,2.9723851860388733,0.0,-268.27192891,-5.3654385782,MgTlP(H6O5)2
mp-763624,,,,,,,
mp-775018,1.7896,-2.8007791708035708,3.242275455651455,0.016288215833336398,-368.13038161,-7.669382950208332,TiFe(PO4)2
mp-572284,2.1992000000000003,-1.5794337172466664,3.4595949554816485,0.094040563576391,-160.59598014,-3.34574958625,SbXeOF9
mp-37605,1.5230000000000001,-1.6417022053385415,5.027169128699812,0.006753629843750275,-40.47139568,-5.05892446,LiNdSe2
mp-770968,4.0053,-2.2091951488324173,3.0340780172839965,0.0,-322.52696685,-6.202441670192307,Na3NiPCO7
mp-581868,3.3077,-1.4580334637962962,4.750349881346518,0.0,-364.26768758,-5.059273438611111,NaY(IO3)4
mp-755491,2.1566,-3.1958103786592056,4.108620438937239,0.026944287145710174,-180.46856203,-8.593741049047619,Sr2Ti6N2O11
mp-765739,0.7787999999999999,-2.560875067896667,4.088639444031365,0.29406647291666577,-165.99357581,-6.916398992083334,VOF
mp-771575,0.7292000000000001,-2.309531422869919,4.039908952464205,0.11242022454349954,-200.90846235,-7.175302226785715,Li2TiMn3O8
mp-761373,,,,,,,
mp-762204,,,,,,,
mp-707395,4.1143,-1.5025605902604684,2.8798335275938016,0.009672951406252572,-161.16301761,-5.0363443003125,NaH2SeO4
mp-691091,2.8883,-2.1140049149773907,2.1826597819038493,0.6083547660869586,-277.8296299,-6.039774563043477,Na2Al2Si3(HO3)4
mp-28566,0.9116,-0.8633532784374994,4.1925212461172485,0.0,-226.96833141,-4.728506904375,NaTiSe4
mp-558603,4.4472000000000005,-3.0767352538166666,2.2407156815690845,0.0,-216.55275708,-7.218425236,K2Si4O9
mp-781603,3.0329000000000006,-2.492380358201897,3.2087043342372663,0.011984085773838693,-173.2972342,-7.220718091666666,Li4Mn3Fe(BO3)4
mp-765772,,,,,,,
mp-9870,2.6721,-3.0693421390333326,5.372059731864153,0.0,-164.59813837,-8.229906918500001,K3Ta3(BO6)2
mp-557291,,,,,,,
mp-850968,,,,,,,
mp-569383,0.3523999999999998,-0.7452930367745455,3.1496901627432177,0.04718941136363597,-256.88824568,-5.8383692200000015,Ca5(CoN2)2
mp-769662,1.3165999999999998,-2.4245474354583343,4.410954819441414,0.06046948400000041,-137.31858865,-6.8659294325000015,Li2TiFe2O5
mp-765882,,,,,,,
mp-625295,,,,,,,
mp-706518,1.8706000000000005,-1.4975063360416665,5.560342844731232,0.015408550972231259,-287.75520225,-5.994900046875,TlCrO4
mp-567326,,,,,,,
mp-568540,0.9346,-0.3891307282517321,5.809155418429262,0.0,-73.51357916,-3.341526325454545,Ag5Hg4P8Cl5
mp-697096,2.1415,-0.4509395377828572,4.328506409164653,0.0,-24.81087713,-3.5444110185714286,Na2H4Pt
mp-683957,1.5028000000000006,-2.3875167758403566,5.514993127640717,0.0,-346.37057769,-6.185188887321429,Nd4CuTe5(ClO5)3
mp-28002,1.1275,-1.2826527093175286,3.778693390926832,0.018407586666667086,-48.11533345,-4.009611120833333,Rb3Mn2Br7
mp-29160,1.2679,-1.8833128592361108,6.202128091618588,0.036505233750006916,-150.38793806,-6.266164085833334,TiAg2O3
mp-767463,,,,,,,
mp-684509,4.2158,-2.5101992288307824,3.1590009948339035,0.04073531155357557,-381.97941536,-6.821060988571429,LiSn(PO3)3
mp-28503,3.3843000000000005,-3.3474349193145163,3.035288311042516,0.06191995725806621,-465.48133203,-7.507763419838708,Al10Si2O19
mp-762716,,,,,,,
mp-643791,5.0891,-2.221538284788928,2.7728352619216525,0.013388658125026431,-95.25652282,-5.95353267625,RbP(HO2)2
mp-655613,0.7322000000000002,-1.5124275147424742,6.210795152272,0.0033316241176457595,-93.21631998,-5.4833129399999985,Cs2Tb6Te7N2
mp-27776,1.0213,-0.9398140713040004,4.477476410172517,0.0027386123333310586,-54.71074372,-2.735537186,Cd2AsCl2
mp-762405,,,,,,,
mp-669304,4.0904,-1.9094000434852216,4.1954727900246045,0.0,-106.83775757,-3.815634198928571,Cs3Tb2Br9
mp-649608,3.4494,-1.5638750243090251,2.48192997467531,0.0,-1052.86835389,-6.4199289871341465,K3Pr2(NO3)9
mp-759211,4.3906,-1.5807807562105076,2.49634148012708,0.08263138913111323,-681.23072697,-5.773141753983051,La2H22S6N6O23
mp-23567,0.5701,-0.6698622084712498,5.912088836860808,0.013206581458332868,-94.47300294,-2.952281341875,CuHgSCl
mp-504665,,,,,,,
mp-764543,,,,,,,
mp-6478,3.7398,-2.767504379739582,5.442088262066012,0.002931165937500424,-123.50514829,-7.719071768125,LiTaGeO5
mp-850974,0.21320000000000008,-1.5839791948333328,2.655591223282864,0.20912362733333456,-147.39867342,-4.913289114,Na7Cr2O6
mp-565446,,,,,,,
mp-765540,,,,,,,
mp-706339,5.1454,-1.8395847559026048,1.759710612838212,0.018433404960942926,-737.16592418,-5.75910878265625,MgB3H15O13
mp-2998,1.6826,-3.4867550467500004,5.891749295298535,0.014747919999999581,-39.98479531,-7.996959062,BaTiO3
mp-25017,,,,,,,
mp-541668,2.2393,-2.3983841022142873,3.518099661655361,0.0,-549.27256489,-6.865907061124999,SbP2O7
mp-770630,2.0153,-2.414458086299017,3.2496852986413933,0.21640146661765147,-238.74684666,-7.021966078235294,RbLi2Cr2(BO3)3
mp-25646,,,,,,,
mp-567022,3.4166000000000003,-1.8653471473421048,5.586006240643952,0.005281881842110536,-446.98697989999994,-5.8814076302631575,K3Bi5(AsO4)6
mp-542798,,,,,,,
mp-762797,,,,,,,
mp-540829,0.6512000000000002,-1.9261737562,3.5857738412298725,0.012217914791664342,-223.47345853,-4.655697052708333,RuF5
mp-867884,2.4742,-1.8548797028571429,4.1487694148508405,0.0,-166.53359828,-5.94762851,RbBaTaS4
mp-556214,5.6345,-3.0348131334027784,2.6345593319856118,0.0,-758.83552947,-7.9045367653125,CaB4O7
mp-760798,0.7905,-2.4085241274104168,3.165490452393611,0.07138054156249929,-137.15198426,-4.285999508125,Li2CuF5
mp-15922,0.7749999999999999,-1.8903319242187493,8.940257364091005,1.2697783567187688,-307.79101761,-9.6184693003125,Gd2ReO5
mp-28727,1.0769000000000002,-1.9633222100416676,5.578073226719591,0.010943271000001252,-352.89441253,-5.881573542166668,La4Bi2S9
mp-560282,2.1777,-1.4932145828679997,2.726458410956416,0.019565284946131637,-369.25279987,-6.154213331166668,K2Ba(NO2)4
mp-566222,,,,,,,
mp-556605,3.6907,-3.802288683333333,5.778683627317263,0.02152235833333549,-113.78359047,-9.4819658725,ZrO2
mp-764261,,,,,,,
mp-542570,1.3778,-0.09375295648437554,4.101586984602983,0.004965807187499394,-133.47080721,-4.1709627253125,AsSe
mp-777465,3.6739,-2.5044311127857144,4.385319757540296,0.02144105633333471,-280.43497393,-7.010874348250001,Li3P3(WO6)2
mp-766774,,,,,,,
mp-771911,3.3565,-1.8420394292032969,4.179708357458247,0.19196076519230765,-318.34349381,-6.1219902655769225,Ni3(PO4)2
mp-555421,3.961,-3.08143174926282,3.7741949946590734,0.0,-534.22067846,-6.8489830571794865,Na3TmSi2O7
mp-554549,2.5121,-2.72215976275,4.245556972702023,0.039309650000005185,-527.43631336,-6.592953917000001,CaGeO3
mp-744285,,,,,,,
mp-763070,,,,,,,
mp-560777,2.3158,-1.7107078492921055,3.990662610144937,0.03817210056390863,-301.73904187,-3.970250550921053,K3Hg3S2Cl5O6
mp-617172,,,,,,,
mp-13791,4.7406,-3.3510927970833326,4.137209370247383,0.0019057646666587047,-450.98756074,-7.516459345666666,BaNaNd(SiO3)3
mp-10796,0.8394999999999999,-0.9761456028906248,6.3376227111812815,0.0,-53.27815198,-4.439845998333333,HgSeO4
mp-5540,7.117000000000001,-3.0260464878125006,3.8871177523926472,0.006828832951383035,-188.87851991,-7.8699383295833325,SrB4O7
mp-868267,0.38180000000000014,-2.0835331410615168,4.253745803110959,0.08756742341304148,-196.82173387,-6.560724462333334,Li6Mn3Cr2Fe3O16
mp-705680,3.068,-2.8544222293269232,5.238427948098585,0.042210117660262725,-199.63952538,-7.678443283846153,La2Mo2O9
mp-34376,1.8690999999999995,-1.9439219953571427,6.181690455592687,0.0997474946428616,-75.34869683,-5.3820497735714286,Tb2CdS4
mp-581114,4.8312,-3.320046500507522,3.4613141421318177,0.0,-1068.70787081,-7.421582436180557,Cs2YSi4O10F
mp-761269,0.3613,-2.4083012673466664,3.9325174462663632,0.0342448821428567,-58.38136834,-4.170097738571429,Li2AgF4
mp-763532,,,,,,,
mp-756495,2.5556,-1.6566021845833332,2.889012350941667,0.09571386291666872,-113.02767709999999,-4.709486545833333,Li3CuO2
mp-781783,,,,,,,
mp-769582,3.3455000000000004,-3.489289616753471,7.07478817478588,0.0,-406.61289644,-8.471102009166666,Sr5Ta4O15
mp-19703,,,,,,,
mp-560966,1.7989,-1.5333606680929996,2.5189138875916237,0.0,-181.1847449,-4.5296186225,K2RuNCl5O
mp-4549,2.9711,-1.3687948797316665,4.22163109612123,0.0,-113.97198321,-7.123248950625,SrSiN2
mp-561942,3.0344,-1.7518058111494248,4.866749646757885,0.002726261788195572,-71.41953788,-5.951628156666667,Cs3TaO8
mp-1001015,0.6698,-2.0452411427380963,3.675153561629256,0.047527466530612905,-84.80051477,-6.057179626428572,Y2ZnS4
mp-31149,0.3687000000000005,-1.0950522674759997,4.786295716520382,0.0,-23.31253811,-4.662507622,Ca3BiN
mp-554105,0.5693000000000001,-0.6742103217708331,4.6340095615636985,0.0029463643750000656,-60.94882913,-3.809301820625,CdAg2GeS4
mp-694955,1.8943,-3.447192713861112,4.7343260549808726,0.04919600407919944,-247.14616692,-8.238205564000001,NaLi2La3Ti6O18
mp-752943,0.6324999999999998,-2.4527096015873013,3.103423505930921,0.05956924683333487,-93.31743758,-6.221162505333334,Li4Cu(PO4)2
mp-559151,2.2234000000000003,-3.4994543464015155,7.095504512111947,0.0,-191.07532547,-8.685242066818182,BaSrTa2O7
mp-638009,2.3812,-1.0628045630102048,3.794780337468156,0.0,-125.75200357,-4.491142984642857,RbPPbS4
mp-761321,,,,,,,
mp-768735,3.3889,-1.7296766799074077,4.550836152007385,0.038834857777778176,-120.95426969,-3.3598408247222222,Ba2SrI6
mp-566706,,,,,,,
mp-754435,5.0767,-3.7318153497500006,8.259908893066303,0.08249667445001485,-79.32519901,-7.932519901000002,LuAlO3
mp-641367,1.1117,-1.5852444124999987,3.985123788977349,0.06859477557289839,-79.18228065,-6.5985233874999984,Cr3AuO8
mp-765623,,,,,,,
mp-16922,0.2720999999999996,-0.8471590282500003,5.506051208283044,0.0,-163.68588445,-4.09214711125,Ba2Sb3
mp-541415,5.4879,-1.8157255555058824,1.9879249142186564,0.0,-373.33354260000004,-5.490199155882354,KH5S2O9
mp-560658,3.1791,-1.92556380625,4.4213841111694245,0.0,-343.63076142,-5.727179357000001,Na5Bi2As5O18
mp-25057,,,,,,,
mp-10461,2.9256,-2.7465891075,5.052120898176389,0.0,-132.39227869,-6.017830849545455,NaSr3SbO6
mp-698313,0.5337000000000001,-1.5868059093799995,2.785949450896947,0.06701779589285284,-263.41175905,-6.2717085488095226,Rb2CuH4(C2O5)2
mp-757669,1.2788,-1.6338213525462966,2.517822938490234,0.11662913611111315,-241.57755472,-6.7104876311111115,LiCuC2O5
mp-697408,3.4108,-1.126525295379473,1.4830706291494649,0.02591277598683828,-218.77631717,-5.7572715044736835,H10C2N2O5
mp-556009,4.3811,-1.583794698770933,3.1237060485275743,0.0,-259.09083798,-5.1818167596,MgTlAs(H6O5)2
mp-657300,1.5876,-0.952036032894048,2.7563457086490315,0.004520335595236347,-284.94007849,-3.39214379154762,RhSCl5
mp-850488,,,,,,,
mp-23065,1.8238,-1.2474412487851725,3.7386570325720463,0.0,-40.68003227,-3.3900026891666664,CsCu2Cl3
mp-772342,1.9733,-2.8742013211858977,6.522264323035732,0.07114309326923696,-422.88803459,-8.132462203653848,Y2W2O9
mp-761392,,,,,,,
mp-774586,1.1891999999999998,-2.7638305596008403,3.0990401508304517,0.0,-262.77884015,-7.728789416176472,Nb3Sb(PO4)6
mp-763544,,,,,,,
mp-762412,0.8069999999999999,-2.0858408534253488,4.010233775855673,0.03125368398989359,-149.35731373,-6.78896880590909,Li2Mn3O6
mp-715035,0.7994999999999997,-2.4272532320833333,3.835291421235253,0.05770990041666658,-370.77514886,-7.724482267916668,VO2
mp-771469,,,,,,,
mp-552234,3.1599,-2.237721716833333,6.127057738165551,0.0,-53.78552739,-5.378552739,SrBiBrO2
mp-20832,0.8193000000000001,-0.3748224521428573,5.439163134148407,0.0,-21.95978895,-3.1371127071428573,Zn(InTe2)2
mp-35630,0.9727,-1.4314994820535714,6.431800670802319,0.09485143482142623,-68.94428671,-4.924591907857144,Pr2CdSe4
mp-27344,6.1876,-0.22532745107969665,0.6024926811822504,0.0,-363.95751521,-4.135880854659091,Be(BH4)2
mp-27221,4.314400000000001,-3.9487400659999983,8.51609731892365,0.0018009505000158301,-240.34836801,-9.6139347204,Ca2Hf7O16
mp-7421,0.2762,-0.4762467776666668,3.621855611959346,0.0,-16.91421589,-2.819035981666667,KZnAs
mp-765263,,,,,,,